----- GAMESS execution script 'rungms' -----
This job is running on host chemcompute-node-0.novalocal
under operating system Linux at Sun Nov 14 16:08:04 UTC 2021
SLURM has assigned the following compute nodes to this run:
chemcompute-node-0
Available scratch disk space (Kbyte units) at beginning of the job is
Filesystem     1K-blocks     Used Available Use% Mounted on
/dev/sda1       62903276 16648792  46254484  27% /
GAMESS temporary binary files will be written to /scratch/306472
GAMESS supplementary output files will be written to /data/slurm/342483
Copying input file 342483.inp to your run's scratch directory...
The generated host list is
chemcompute-node-0.novalocal

 Distributed Data Interface kickoff program.
 Initiating 1 compute processes on 1 nodes to run the following command:
 /data/gamess-2019R1-ddi/gamess.00.x 342483 

          ******************************************************
          *         GAMESS VERSION = 30 JUN 2019 (R1)          *
          *             FROM IOWA STATE UNIVERSITY             *
          * M.W.SCHMIDT, K.K.BALDRIDGE, J.A.BOATZ, S.T.ELBERT, *
          *   M.S.GORDON, J.H.JENSEN, S.KOSEKI, N.MATSUNAGA,   *
          *          K.A.NGUYEN, S.J.SU, T.L.WINDUS,           *
          *       TOGETHER WITH M.DUPUIS, J.A.MONTGOMERY       *
          *         J.COMPUT.CHEM.  14, 1347-1363(1993)        *
          **************** 64 BIT LINUX VERSION ****************

  SINCE 1993, STUDENTS AND POSTDOCS WORKING AT IOWA STATE UNIVERSITY
  AND ALSO IN THEIR VARIOUS JOBS AFTER LEAVING ISU HAVE MADE IMPORTANT
  CONTRIBUTIONS TO THE CODE:
     IVANA ADAMOVIC, CHRISTINE AIKENS, YURI ALEXEEV, POOJA ARORA,
     ANDREY ASADCHEV, ROB BELL, PRADIPTA BANDYOPADHYAY, JONATHAN BENTZ,
     COLLEEN BERTONI, BRETT BODE, KURT BRORSEN, CALEB CARLIN, GALINA CHABAN,
     WEI CHEN, CHEOL HO CHOI, PAUL DAY, ALBERT DEFUSCO, NUWAN DESILVA,
     TIM DUDLEY, DMITRI FEDOROV, ALEX FINDLATER, GRAHAM FLETCHER, 
     MARK FREITAG, KURT GLAESEMANN, ANASTASIA GUNINA,
     DAN KEMP, GRANT MERRILL, NORIYUKI MINEZAWA, JONATHAN MULLIN,
     TAKESHI NAGATA, SEAN NEDD, HEATHER NETZLOFF, BOSILJKA NJEGIC, RYAN OLSON,
     MIKE PAK, BUU PHAM,
     SPENCER PRUITT, LUKE ROSKOP, JIM SHOEMAKER, LYUDMILA SLIPCHENKO,
     TONY SMITH, SAROM SOK LEANG, JIE SONG, TETSUYA TAKETSUGU, SIMON WEBB,
     PENG XU, SOOHAENG YOO, FEDERICO ZAHARIEV

  ADDITIONAL CODE HAS BEEN PROVIDED BY COLLABORATORS IN OTHER GROUPS:
     IOWA STATE UNIVERSITY:
          JOE IVANIC, AARON WEST, LAIMUTIS BYTAUTAS, KLAUS RUEDENBERG
     UNIVERSITY OF TOKYO: KIMIHIKO HIRAO, TAKAHITO NAKAJIMA,
          TAKAO TSUNEDA, MUNEAKI KAMIYA, SUSUMU YANAGISAWA,
          KIYOSHI YAGI, MAHITO CHIBA, SEIKEN TOKURA, NAOAKI KAWAKAMI
     UNIVERSITY OF AARHUS: FRANK JENSEN
     UNIVERSITY OF IOWA: VISVALDAS KAIRYS, HUI LI
     NATIONAL INST. OF STANDARDS AND TECHNOLOGY: WALT STEVENS, DAVID GARMER
     UNIVERSITY OF PISA: BENEDETTA MENNUCCI, JACOPO TOMASI
     UNIVERSITY OF MEMPHIS: HENRY KURTZ, PRAKASHAN KORAMBATH
     UNIVERSITY OF ALBERTA: TOBY ZENG, MARIUSZ KLOBUKOWSKI
     UNIVERSITY OF NEW ENGLAND: MARK SPACKMAN
     MIE UNIVERSITY: HIROAKI UMEDA
     NAT. INST. OF ADVANCED INDUSTRIAL SCIENCE AND TECHNOLOGY: KAZUO KITAURA
     MICHIGAN STATE UNIVERSITY:
          KAROL KOWALSKI, MARTA WLOCH, JEFFREY GOUR, JESSE LUTZ,
          WEI LI, JUN SHEN, J. EMILIANO DEUSTUA, PIOTR PIECUCH
     UNIVERSITY OF MINNESOTA:
          YINAN SHU
     UNIVERSITY OF SILESIA: MONIKA MUSIAL, STANISLAW KUCHARSKI
     FACULTES UNIVERSITAIRES NOTRE-DAME DE LA PAIX:
          OLIVIER QUINET, BENOIT CHAMPAGNE
     UNIVERSITY OF CALIFORNIA - SANTA BARBARA: BERNARD KIRTMAN
     INSTITUTE FOR MOLECULAR SCIENCE:
          KAZUYA ISHIMURA, MICHIO KATOUDA, AND SHIGERU NAGASE
     UNIVERSITY OF NOTRE DAME: ANNA POMOGAEVA, DAN CHIPMAN
     KYUSHU UNIVERSITY:
          HARUYUKI NAKANO,
          FENG LONG GU, JACEK KORCHOWIEC, MARCIN MAKOWSKI, AND YURIKO AOKI,
          HIROTOSHI MORI AND EISAKU MIYOSHI
     PENNSYLVANIA STATE UNIVERSITY:
          TZVETELIN IORDANOV, CHET SWALINA, JONATHAN SKONE,
          SHARON HAMMES-SCHIFFER
     WASEDA UNIVERSITY:
          MASATO KOBAYASHI, TOMOKO AKAMA, TSUGUKI TOUMA,
          TAKESHI YOSHIKAWA, YASUHIRO IKABATA, JUNJI SEINO,
          YUYA NAKAJIMA, HIROMI NAKAI
     NANJING UNIVERSITY: SHUHUA LI
     UNIVERSITY OF NEBRASKA:
          PEIFENG SU, DEJUN SI, NANDUN THELLAMUREGE, YALI WANG, HUI LI
     UNIVERSITY OF ZURICH: ROBERTO PEVERATI, KIM BALDRIDGE
     N. COPERNICUS UNIVERSITY AND JACKSON STATE UNIVERSITY:
          MARIA BARYSZ
     UNIVERSITY OF COPENHAGEN: Jimmy Kromann, CASPER STEINMANN
     TOKYO INSTITUTE OF TECHNOLOGY: HIROYA NAKATA
     NAGOYA UNIVERSITY: YOSHIO NISHIMOTO, STEPHAN IRLE
     MOSCOW STATE UNIVERSITY: VLADIMIR MIRONOV
     A.N.NESMEYANOV INSTITUTE OF ORGANOELEMENT COMPOUNDS OF RUSSIAN ACADEMY OF SCIENCES:
          IGOR S. GERASIMOV

 EXECUTION OF GAMESS BEGUN Sun Nov 14 16:08:05 2021

            ECHO OF THE FIRST FEW INPUT CARDS -
 INPUT CARD>!File created by the GAMESS Input Deck Generator Plugin for Avogadro            
 INPUT CARD> $BASIS GBASIS=STO NGAUSS=3 $END                                                
 INPUT CARD> $CONTRL SCFTYP=UHF RUNTYP=SADPOINT NZVAR=1 mult=1  ICHARG=1 $END               
 INPUT CARD> $STATPT hssend=.t. OPTTOL=0.0005 NSTEP=50 $END                                 
 INPUT CARD> $STATPT HESS=calc ihrep=5 $END                                                 
 INPUT CARD> $FORCE nvib=2 $END                                                             
 INPUT CARD> $ZMAT DLC=.t. auto=.t. nonvdw(1)=1,16,2,16 $END                                
 INPUT CARD>!$ZMAT IFZMAT(1)=1,2,2,3 fvalue(1)=2.00,2.00 $END                               
 INPUT CARD>                                                                                
 INPUT CARD> $DATA                                                                          
 INPUT CARD>Title                                                                           
 INPUT CARD>C1                                                                              
 INPUT CARD>C     6.0    -2.57512999     3.69497991    -0.09549000                          
 INPUT CARD>C     6.0    -3.68326998     2.60359001    -0.08800000                          
 INPUT CARD>C     6.0    -2.90175009     1.20669007    -0.08026000                          
 INPUT CARD>H     1.0    -4.25445986     2.32534003    -1.02405000                          
 INPUT CARD>H     1.0    -4.21898985     2.37571001     0.88151002                          
 INPUT CARD>C     6.0    -1.42014003     1.41359007    -0.14149000                          
 INPUT CARD>C     6.0    -1.19052994     2.89180994    -0.07995000                          
 INPUT CARD>H     1.0    -1.00370002     0.98396003    -1.05953991                          
 INPUT CARD>H     1.0    -0.91752005     0.90995002     0.69215000                          
 INPUT CARD>H     1.0    -2.33508015     4.23728037     0.86757004                          
 INPUT CARD>H     1.0    -2.29211020     4.25219011    -1.03836000                          
 INPUT CARD>H     1.0    -0.55675995     3.20866990    -0.92017001                          
 INPUT CARD>H     1.0    -0.61891001     3.14555001     0.82257998                          
 INPUT CARD>H     1.0    -3.22502995     0.59255004    -0.93226999                          
 INPUT CARD>H     1.0    -3.16908002     0.62395000     0.81141996                          
 INPUT CARD>Br    35.0    -4.42623997     4.46580029    -0.15448999                         
 INPUT CARD> $END                                                                           
    1000000 WORDS OF MEMORY AVAILABLE

     BASIS OPTIONS
     -------------
     GBASIS=STO          IGAUSS=       3      POLAR=NONE    
     NDFUNC=       0     NFFUNC=       0     DIFFSP=       F
     NPFUNC=       0      DIFFS=       F     BASNAM=        


     RUN TITLE
     ---------
 Title                                                                           

 THE POINT GROUP OF THE MOLECULE IS C1      
 THE ORDER OF THE PRINCIPAL AXIS IS     0

 ATOM      ATOMIC                      COORDINATES (BOHR)
           CHARGE         X                   Y                   Z
 C           6.0    -4.8662900639        6.9824995600       -0.1804499346
 C           6.0    -6.9603710010        4.9200717033       -0.1662958869
 C           6.0    -5.4835125549        2.2803135844       -0.1516694078
 H           1.0    -8.0397633612        4.3942554850       -1.9351738977
 H           1.0    -7.9727347615        4.4894409452        1.6658123932
 C           6.0    -2.6836755209        2.6712978913       -0.2673773300
 C           6.0    -2.2497753668        5.4647283952       -0.1510835927
 H           1.0    -1.8967180117        1.8594148396       -2.0022401030
 H           1.0    -1.7338614827        1.7195562003        1.3079738424
 H           1.0    -4.4126616429        8.0072988325        1.6394696508
 H           1.0    -4.3314602117        8.0354741556       -1.9622158766
 H           1.0    -1.0521237464        6.0635068961       -1.7388691810
 H           1.0    -1.1695703300        5.9442275996        1.5544507652
 H           1.0    -6.0944229077        1.1197572096       -1.7617348277
 H           1.0    -5.9886928710        1.1790945300        1.5333613854
 BR         35.0    -8.3643806992        8.4391388640       -0.2919437489

          INTERNUCLEAR DISTANCES (ANGS.)
          ------------------------------

                1 C          2 C          3 C          4 H          5 H     

   1 C       0.0000000    1.5553656 *  2.5096810 *  2.3576017 *  2.3232041 *
   2 C       1.5553656 *  0.0000000    1.6006757 *  1.1313136 *  1.1308734 *
   3 C       2.5096810 *  1.6006757 *  0.0000000    1.9929729 *  2.0066713 *
   4 H       2.3576017 *  1.1313136 *  1.9929729 *  0.0000000    1.9065556 *
   5 H       2.3232041 *  1.1308734 *  2.0066713 *  1.9065556 *  0.0000000  
   6 C       2.5575100 *  2.5574828 *  1.4972392 *  3.1054096    3.1314157  
   7 C       1.6007626 *  2.5093602 *  2.4016460 *  3.2557456    3.2190579  
   8 H       3.2784773    3.2782901    2.1473686 *  3.5168167    4.0053379  
   9 H       3.3353319    3.3356293    2.1498467 *  4.0104661    3.6171829  
  10 H       1.1310165 *  2.3237199 *  3.2255192    3.3042035    2.6485381 *
  11 H       1.1311884 *  2.3572000 *  3.2503364    2.7502313 *  3.3045338  
  12 H       2.2339230 *  3.2914577    3.1956769    3.8031628    4.1655493  
  13 H       2.2296911 *  3.2424032    3.1282034    4.1593280    3.6819426  
  14 H       3.2783596    2.2286896 *  1.0989080 *  2.0176002 *  2.7308266 *
  15 H       3.2567602    2.2343505 *  1.0982461 *  2.7279530 *  2.0434986 *
  16 BR      2.0060541 *  2.0060540 *  3.5988024    2.3167247 *  2.3419492 *

                6 C          7 C          8 H          9 H         10 H     

   1 C       2.5575100 *  1.6007626 *  3.2784773    3.3353319    1.1310165 *
   2 C       2.5574828 *  2.5093602 *  3.2782901    3.3356293    2.3237199 *
   3 C       1.4972392 *  2.4016460 *  2.1473686 *  2.1498467 *  3.2255192  
   4 H       3.1054096    3.2557456    3.5168167    4.0104661    3.3042035  
   5 H       3.1314157    3.2190579    4.0053379    3.6171829    2.6485381 *
   6 C       0.0000000    1.4972114 *  1.0958193 *  1.0960090 *  3.1350510  
   7 C       1.4972114 *  0.0000000    2.1527641 *  2.1443977 *  2.0045149 *
   8 H       1.0958193 *  2.1527641 *  0.0000000    1.7553695 *  4.0087927  
   9 H       1.0960090 *  2.1443977 *  1.7553695 *  0.0000000    3.6209634  
  10 H       3.1350510    2.0045149 *  4.0087927    3.6209634    0.0000000  
  11 H       3.1019926    1.9956610 *  3.5130866    4.0068356    1.9064727 *
  12 H       2.1387097 *  1.0991061 *  2.2734365 *  2.8308721 *  2.7233209 *
  13 H       2.1380098 *  1.0980409 *  2.8918696 *  2.2592227 *  2.0344875 *
  14 H       2.1347289 *  3.1862573    2.2591383 *  2.8397333 *  4.1611890  
  15 H       2.1425125 *  3.1388516    2.8842622 *  2.2727832 *  3.7087552  
  16 BR      4.2840160    3.5990028    4.9654916    5.0667530    2.3387555 *

               11 H         12 H         13 H         14 H         15 H     

   1 C       1.1311884 *  2.2339230 *  2.2296911 *  3.2783596    3.2567602  
   2 C       2.3572000 *  3.2914577    3.2424032    2.2286896 *  2.2343505 *
   3 C       3.2503364    3.1956769    3.1282034    1.0989080 *  1.0982461 *
   4 H       2.7502313 *  3.8031628    4.1593280    2.0176002 *  2.7279530 *
   5 H       3.3045338    4.1655493    3.6819426    2.7308266 *  2.0434986 *
   6 C       3.1019926    2.1387097 *  2.1380098 *  2.1347289 *  2.1425125 *
   7 C       1.9956610 *  1.0991061 *  1.0980409 *  3.1862573    3.1388516  
   8 H       3.5130866    2.2734365 *  2.8918696 *  2.2591383 *  2.8842622 *
   9 H       4.0068356    2.8308721 *  2.2592227 *  2.8397333 *  2.2727832 *
  10 H       1.9064727 *  2.7233209 *  2.0344875 *  4.1611890    3.7087552  
  11 H       0.0000000    2.0283845 *  2.7363020 *  3.7781688    4.1659199  
  12 H       2.0283845 *  0.0000000    1.7449998 *  3.7368294    4.0624373  
  13 H       2.7363020 *  1.7449998 *  0.0000000    4.0483538    3.5863572  
  14 H       3.7781688    3.7368294    4.0483538    0.0000000    1.7448699 *
  15 H       4.1659199    4.0624373    3.5863572    1.7448699 *  0.0000000  
  16 BR      2.3197770 *  4.1399901    4.1465031    4.1291542    4.1561096  

               16 BR    

   1 C       2.0060541 *
   2 C       2.0060540 *
   3 C       3.5988024  
   4 H       2.3167247 *
   5 H       2.3419492 *
   6 C       4.2840160  
   7 C       3.5990028  
   8 H       4.9654916  
   9 H       5.0667530  
  10 H       2.3387555 *
  11 H       2.3197770 *
  12 H       4.1399901  
  13 H       4.1465031  
  14 H       4.1291542  
  15 H       4.1561096  
  16 BR      0.0000000  

  * ... LESS THAN  3.000


     ATOMIC BASIS SET
     ----------------
 THE CONTRACTED PRIMITIVE FUNCTIONS HAVE BEEN UNNORMALIZED
 THE CONTRACTED BASIS FUNCTIONS ARE NOW NORMALIZED TO UNITY

  SHELL TYPE  PRIMITIVE        EXPONENT          CONTRACTION COEFFICIENT(S)

 C         

      1   S       1            71.6168373    0.154328967295
      1   S       2            13.0450963    0.535328142282
      1   S       3             3.5305122    0.444634542185

      2   L       4             2.9412494   -0.099967229187    0.155916274999
      2   L       5             0.6834831    0.399512826089    0.607683718598
      2   L       6             0.2222899    0.700115468880    0.391957393099

 C         

      3   S       7            71.6168373    0.154328967295
      3   S       8            13.0450963    0.535328142282
      3   S       9             3.5305122    0.444634542185

      4   L      10             2.9412494   -0.099967229187    0.155916274999
      4   L      11             0.6834831    0.399512826089    0.607683718598
      4   L      12             0.2222899    0.700115468880    0.391957393099

 C         

      5   S      13            71.6168373    0.154328967295
      5   S      14            13.0450963    0.535328142282
      5   S      15             3.5305122    0.444634542185

      6   L      16             2.9412494   -0.099967229187    0.155916274999
      6   L      17             0.6834831    0.399512826089    0.607683718598
      6   L      18             0.2222899    0.700115468880    0.391957393099

 H         

      7   S      19             3.4252509    0.154328967295
      7   S      20             0.6239137    0.535328142282
      7   S      21             0.1688554    0.444634542185

 H         

      8   S      22             3.4252509    0.154328967295
      8   S      23             0.6239137    0.535328142282
      8   S      24             0.1688554    0.444634542185

 C         

      9   S      25            71.6168373    0.154328967295
      9   S      26            13.0450963    0.535328142282
      9   S      27             3.5305122    0.444634542185

     10   L      28             2.9412494   -0.099967229187    0.155916274999
     10   L      29             0.6834831    0.399512826089    0.607683718598
     10   L      30             0.2222899    0.700115468880    0.391957393099

 C         

     11   S      31            71.6168373    0.154328967295
     11   S      32            13.0450963    0.535328142282
     11   S      33             3.5305122    0.444634542185

     12   L      34             2.9412494   -0.099967229187    0.155916274999
     12   L      35             0.6834831    0.399512826089    0.607683718598
     12   L      36             0.2222899    0.700115468880    0.391957393099

 H         

     13   S      37             3.4252509    0.154328967295
     13   S      38             0.6239137    0.535328142282
     13   S      39             0.1688554    0.444634542185

 H         

     14   S      40             3.4252509    0.154328967295
     14   S      41             0.6239137    0.535328142282
     14   S      42             0.1688554    0.444634542185

 H         

     15   S      43             3.4252509    0.154328967295
     15   S      44             0.6239137    0.535328142282
     15   S      45             0.1688554    0.444634542185

 H         

     16   S      46             3.4252509    0.154328967295
     16   S      47             0.6239137    0.535328142282
     16   S      48             0.1688554    0.444634542185

 H         

     17   S      49             3.4252509    0.154328967295
     17   S      50             0.6239137    0.535328142282
     17   S      51             0.1688554    0.444634542185

 H         

     18   S      52             3.4252509    0.154328967295
     18   S      53             0.6239137    0.535328142282
     18   S      54             0.1688554    0.444634542185

 H         

     19   S      55             3.4252509    0.154328967295
     19   S      56             0.6239137    0.535328142282
     19   S      57             0.1688554    0.444634542185

 H         

     20   S      58             3.4252509    0.154328967295
     20   S      59             0.6239137    0.535328142282
     20   S      60             0.1688554    0.444634542185

 BR        

     21   S      61          2629.9974710    0.154328967295
     21   S      62           479.0573224    0.535328142282
     21   S      63           129.6516070    0.444634542185

     22   L      64           219.8350255   -0.099967229187    0.155916274999
     22   L      65            51.0849322    0.399512826089    0.607683718598
     22   L      66            16.6144055    0.700115468880    0.391957393099

     23   L      67            20.6524416   -0.219620369005    0.010587604289
     23   L      68             5.7619788    0.225595433605    0.595167005266
     23   L      69             2.2551994    0.900398426019    0.462001011973

     24   D      70            22.3657496    0.168659606013
     24   D      71             7.0128139    0.584798481745
     24   D      72             2.7316638    0.405677952331

     25   L      73             1.3960375   -0.308844121382   -0.121546859998
     25   L      74             0.5152256    0.019606411652    0.571522760389
     25   L      75             0.2275291    1.131034441567    0.549894947089

 TOTAL NUMBER OF BASIS SET SHELLS             =   25
 NUMBER OF CARTESIAN GAUSSIAN BASIS FUNCTIONS =   54
 NUMBER OF ELECTRONS                          =   74
 CHARGE OF MOLECULE                           =    1
 SPIN MULTIPLICITY                            =    1
 NUMBER OF OCCUPIED ORBITALS (ALPHA)          =   37
 NUMBER OF OCCUPIED ORBITALS (BETA )          =   37
 TOTAL NUMBER OF ATOMS                        =   16
 THE NUCLEAR REPULSION ENERGY IS      441.1266365624

     $CONTRL OPTIONS
     ---------------
 SCFTYP=UHF          RUNTYP=SADPOINT     EXETYP=RUN     
 MPLEVL=       0     CITYP =NONE         CCTYP =NONE         VBTYP =NONE    
 DFTTYP=NONE         TDDFT =NONE    
 MULT  =       1     ICHARG=       1     NZVAR =       1     COORD =UNIQUE  
 PP    =NONE         RELWFN=NONE         LOCAL =NONE         NUMGRD=       F
 ISPHER=      -1     NOSYM =       0     MAXIT =      30     UNITS =ANGS    
 PLTORB=       F     MOLPLT=       F     AIMPAC=       F     FRIEND=        
 NPRINT=       7     IREST =       0     GEOM  =INPUT   
 NORMF =       0     NORMP =       0     ITOL  =      20     ICUT  =       9
 INTTYP=BEST         GRDTYP=BEST         QMTTOL= 1.0E-06

     $SYSTEM OPTIONS
     ---------------
  REPLICATED MEMORY=     1000000 WORDS (ON EVERY NODE).
 DISTRIBUTED MEMDDI=           0 MILLION WORDS IN AGGREGATE,
 MEMDDI DISTRIBUTED OVER   1 PROCESSORS IS           0 WORDS/PROCESSOR.
 TOTAL MEMORY REQUESTED ON EACH PROCESSOR=     1000000 WORDS.
 TIMLIM=      525600.00 MINUTES, OR     365.0 DAYS.
 PARALL= F  BALTYP=  DLB     KDIAG=    0  COREFL= F
 MXSEQ2=     300 MXSEQ3=     150  mem10=         0

          ----------------
          PROPERTIES INPUT
          ----------------

     MOMENTS            FIELD           POTENTIAL          DENSITY
 IEMOM =       1   IEFLD =       0   IEPOT =       0   IEDEN =       0
 WHERE =COMASS     WHERE =NUCLEI     WHERE =NUCLEI     WHERE =NUCLEI  
 OUTPUT=BOTH       OUTPUT=BOTH       OUTPUT=BOTH       OUTPUT=BOTH    
 IEMINT=       0   IEFINT=       0                     IEDINT=       0
                                                       MORB  =       0
          EXTRAPOLATION IN EFFECT
          SOSCF IN EFFECT
          DIIS or SOSCF will be reset if energy rises
 ORBITAL PRINTING OPTION: NPREO=     1    54     2     1

     -------------------------------
     INTEGRAL TRANSFORMATION OPTIONS
     -------------------------------
     NWORD  =            0
     CUTOFF = 1.0E-09     MPTRAN =       0
     DIRTRF =       F     AOINTS =DUP     

          ----------------------
          INTEGRAL INPUT OPTIONS
          ----------------------
 NOPK  =       1 NORDER=       0 SCHWRZ=       T


 -----------------------------------------------
  STATISTICS ON AUTOMATIC COORDINATE GENERATION 
 -----------------------------------------------
  NUMBER OF USER SPECIFIED BONDS                             2
  NUMBER OF BONDS                                           19
  NUMBER OF ANGLES                                          50
  NUMBER OF TORSIONS                                        63
  NUMBER OF EXTRA COORD.                                     0
  NUMBER OF EXTRA COORD. FOR CONSTRAINTS                     0
  NUMBER OF CONSTRAINED COORD.                               0

  TOTAL NUMBER OF PRIMITIVES                               132
 -----------------------------------------------

   --- ENCODED Z MATRIX ---
 COORD  TYPE   I   J   K   L   M   N
    1      1    1  10
    2      1    1  16
    3      1    1  11
    4      1    1  16
    5      1    1   2
    6      1    1   7
    7      1    2  16
    8      1    2   4
    9      1    2   3
   10      1    2  16
   11      1    2   5
   12      1    3  15
   13      1    3  14
   14      1    3   6
   15      1    6   7
   16      1    6   9
   17      1    6   8
   18      1    7  13
   19      1    7  12
   20      2    1   2  16
   21      2    1   2  16
   22      2    1   2   4
   23      2    1   7   6
   24      2    1   2   3
   25      2    1   7  13
   26      2    1  16   2
   27      2    1  16   2
   28      2    1   2   5
   29      2    1   7  12
   30      2    1  16   2
   31      2    1  16   2
   32      2    2   1  16
   33      2    2   1  11
   34      2    2   3   6
   35      2    2   1  10
   36      2    2   3  14
   37      2    2   1   7
   38      2    2   3  15
   39      2    2   1  16
   40      2    3   2   4
   41      2    3   2  16
   42      2    3   6   8
   43      2    3   6   9
   44      2    3   6   7
   45      2    3   2   5
   46      2    3   2  16
   47      2    4   2  16
   48      2    4   2  16
   49      2    4   2   5
   50      2    5   2  16
   51      2    5   2  16
   52      2    6   7  12
   53      2    6   7  13
   54      2    6   3  14
   55      2    6   3  15
   56      2    7   1  16
   57      2    7   1  11
   58      2    7   6   8
   59      2    7   6   9
   60      2    7   1  10
   61      2    7   1  16
   62      2    8   6   9
   63      2   10   1  16
   64      2   10   1  16
   65      2   10   1  11
   66      2   11   1  16
   67      2   11   1  16
   68      2   12   7  13
   69      2   14   3  15
   70      3    1   2   3   6
   71      3    1   2   3  14
   72      3    1   2   3  15
   73      3    1   7   6   8
   74      3    1  16   2   5
   75      3    1  16   2   3
   76      3    1  16   2   4
   77      3    1   7   6   9
   78      3    1   7   6   3
   79      3    2   1   7  12
   80      3    2   3   6   8
   81      3    2   3   6   9
   82      3    2   3   6   7
   83      3    2  16   1   7
   84      3    2  16   1  11
   85      3    2  16   1  10
   86      3    2   1   7  13
   87      3    2   1   7   6
   88      3    3   6   7  13
   89      3    3   2   1   7
   90      3    3   2   1  11
   91      3    3   2   1  16
   92      3    3   2   1  10
   93      3    3   6   7  12
   94      3    4   2   1  10
   95      3    4   2   3  15
   96      3    4   2   3  14
   97      3    4   2   1   7
   98      3    4   2   3   6
   99      3    4   2   1  11
  100      3    4   2   1  16
  101      3    5   2   3  15
  102      3    5   2   1   7
  103      3    5   2   1  11
  104      3    5   2   3  14
  105      3    5   2   1  16
  106      3    5   2   1  10
  107      3    5   2   3   6
  108      3    6   7   1  11
  109      3    6   7   1  16
  110      3    6   7   1  10
  111      3    6   3   2  16
  112      3    7   6   3  14
  113      3    7   6   3  15
  114      3    7   1   2  16
  115      3    8   6   3  14
  116      3    8   6   3  15
  117      3    8   6   7  13
  118      3    8   6   7  12
  119      3    9   6   3  14
  120      3    9   6   3  15
  121      3    9   6   7  13
  122      3    9   6   7  12
  123      3   10   1   2  16
  124      3   10   1   7  13
  125      3   10   1   7  12
  126      3   11   1   7  13
  127      3   11   1   7  12
  128      3   11   1   2  16
  129      3   12   7   1  16
  130      3   13   7   1  16
  131      3   14   3   2  16
  132      3   15   3   2  16

          INDEP./SYM. INTERNAL COORDINATES
          --------------------------------
 CRD  1=  -0.2222 (  5)  0.2938 (  6)  0.2396 (  9)  0.1328 ( 16)  0.1271 ( 17)
           0.3093 ( 23) -0.1026 ( 24)  0.3309 ( 34) -0.1187 ( 37)  0.1474 ( 42)
           0.1408 ( 43) -0.4188 ( 44) -0.1428 ( 52) -0.1322 ( 53) -0.1423 ( 54)
          -0.1396 ( 55)  0.1550 ( 58)  0.1568 ( 59) -0.1651 ( 62)  0.1095 ( 69)
 CRD  2=  -0.4632 (  6)  0.4938 (  9)  0.2367 ( 14) -0.2313 ( 15) -0.1063 ( 19)
           0.2423 ( 23) -0.1364 ( 25) -0.1323 ( 29) -0.2067 ( 34)  0.1217 ( 36)
           0.1275 ( 38)  0.1167 ( 42)  0.1090 ( 68)
 CRD  3=   0.1016 (  1) -0.2151 (  6)  0.2050 (  9) -0.1025 ( 11) -0.4071 ( 14)
           0.3694 ( 15)  0.1116 ( 23)  0.1902 ( 24) -0.1498 ( 29) -0.1138 ( 34)
           0.1599 ( 36) -0.1953 ( 37)  0.1408 ( 41) -0.1512 ( 42) -0.1120 ( 45)
           0.1408 ( 46) -0.1450 ( 56)  0.1459 ( 58)  0.1077 ( 60) -0.1450 ( 61)
          -0.1291 (116) -0.1294 (117)  0.1247 (119)  0.1245 (122)
 CRD  4=   0.1389 (  5)  0.1667 (  6)  0.1763 (  9)  0.1125 ( 12)  0.1238 ( 13)
           0.5365 ( 14)  0.5607 ( 15)  0.1571 ( 16)  0.1416 ( 17)  0.1064 ( 18)
           0.1258 ( 19)  0.1007 ( 55) -0.1078 ( 62)
 CRD  5=   0.2167 (  5)  0.4814 (  6)  0.4814 (  9)  0.1566 ( 25)  0.1502 ( 29)
           0.1395 ( 36)  0.1671 ( 38)  0.2368 ( 44)
 CRD  6=   0.1873 ( 14) -0.2070 ( 15)  0.1255 ( 24)  0.1973 ( 25) -0.1260 ( 29)
          -0.1024 ( 34)  0.1708 ( 36) -0.1262 ( 37) -0.2250 ( 38)  0.1264 ( 41)
          -0.1290 ( 42)  0.2874 ( 43) -0.1110 ( 45)  0.1264 ( 46) -0.2531 ( 53)
           0.2667 ( 55) -0.1227 ( 56)  0.1251 ( 58) -0.2912 ( 59) -0.1227 ( 61)
          -0.1551 ( 77) -0.1864 ( 81)  0.1728 ( 88)  0.1700 (113)
 CRD  7=   0.1068 ( 12)  0.1082 ( 18)  0.1337 ( 22)  0.2590 ( 25) -0.1310 ( 28)
          -0.2678 ( 29)  0.1451 ( 33) -0.1409 ( 35) -0.2249 ( 36)  0.2138 ( 38)
           0.1669 ( 52) -0.1554 ( 53)  0.1321 ( 54) -0.1187 ( 55) -0.1347 ( 70)
          -0.1473 ( 71) -0.1375 ( 72) -0.2053 ( 73) -0.1139 ( 74) -0.1219 ( 75)
          -0.1147 ( 76) -0.2095 ( 77) -0.2147 ( 78)  0.1582 ( 79)  0.1754 ( 80)
           0.1775 ( 81)  0.2156 ( 82)  0.1338 ( 83)  0.1253 ( 84)  0.1231 ( 85)
           0.1513 ( 86)  0.1322 ( 87)
 CRD  8=   0.1070 (  1) -0.1011 (  9) -0.1105 ( 11)  0.1120 ( 12)  0.1406 ( 14)
          -0.1275 ( 15)  0.1271 ( 23)  0.1961 ( 24) -0.1155 ( 25)  0.1592 ( 29)
          -0.1221 ( 34) -0.1894 ( 36) -0.1989 ( 37)  0.1285 ( 38) -0.1189 ( 40)
           0.1506 ( 41)  0.2416 ( 42) -0.1229 ( 45)  0.1506 ( 46) -0.2113 ( 52)
           0.2319 ( 54) -0.1583 ( 56)  0.1147 ( 57) -0.2347 ( 58)  0.1244 ( 60)
          -0.1583 ( 61) -0.1199 ( 71)  0.1526 ( 73)  0.1664 ( 80) -0.1457 ( 93)
          -0.1429 (112)
 CRD  9=  -0.1161 ( 13)  0.3167 ( 16) -0.3006 ( 17) -0.1209 ( 19) -0.1281 ( 22)
           0.1400 ( 25)  0.1335 ( 28) -0.1611 ( 29) -0.1272 ( 33)  0.1343 ( 35)
          -0.1618 ( 36)  0.1396 ( 38) -0.1147 ( 42)  0.1258 ( 43) -0.1172 ( 58)
           0.1254 ( 59)  0.1143 ( 71)  0.1173 ( 72) -0.1627 ( 73)  0.1348 ( 74)
           0.1300 ( 76) -0.1649 ( 77) -0.1158 ( 79)  0.1636 ( 80)  0.1652 ( 81)
          -0.1288 ( 84) -0.1360 ( 85) -0.1160 ( 86)  0.2279 ( 88)  0.2369 ( 93)
          -0.1025 (107)  0.1031 (110) -0.2382 (112) -0.2275 (113)
 CRD 10=  -0.2853 (  1) -0.2491 (  3) -0.4305 (  5)  0.1351 (  6) -0.2377 (  8)
           0.1325 (  9) -0.3048 ( 11) -0.1022 ( 23) -0.1135 ( 26) -0.1135 ( 27)
          -0.1135 ( 30) -0.1135 ( 31) -0.1040 ( 34)  0.1356 ( 41)  0.1356 ( 46)
           0.1514 ( 49)  0.1337 ( 56)  0.1337 ( 61)  0.1501 ( 65)
 CRD 11=  -0.2786 ( 12)  0.2562 ( 13)  0.3418 ( 16) -0.3724 ( 17) -0.2772 ( 18)
           0.2542 ( 19)  0.1580 ( 52) -0.1629 ( 53)  0.1574 ( 54) -0.1639 ( 55)
           0.1180 ( 78) -0.1182 ( 82)  0.1516 ( 98)  0.1421 (107) -0.1509 (108)
          -0.1419 (110)
 CRD 12=  -0.1470 (  1)  0.1219 (  3) -0.1144 (  8)  0.1542 ( 11)  0.3047 ( 12)
          -0.3150 ( 13) -0.3110 ( 18)  0.3094 ( 19)  0.1674 ( 42) -0.1765 ( 43)
           0.1371 ( 52) -0.1300 ( 53) -0.1387 ( 54)  0.1282 ( 55) -0.1681 ( 58)
           0.1756 ( 59)  0.1176 ( 71)  0.1122 ( 72)  0.1128 ( 73)  0.1196 ( 77)
           0.1166 ( 79)  0.1136 ( 80)  0.1184 ( 81)  0.1136 ( 86) -0.1024 (107)
          -0.1001 (108) -0.1014 (110)  0.1003 (122)
 CRD 13=  -0.3911 (  1)  0.4490 (  3) -0.4853 (  8)  0.3745 ( 11) -0.2011 ( 12)
           0.2581 ( 13)  0.2134 ( 18) -0.2311 ( 19)
 CRD 14=  -0.2853 (  1)  0.4323 (  3)  0.4227 (  8) -0.2277 ( 11)  0.1799 ( 12)
          -0.2530 ( 13)  0.1982 ( 18) -0.2319 ( 19)  0.1117 ( 40) -0.1170 ( 45)
          -0.1111 ( 47) -0.1111 ( 48)  0.1017 ( 50)  0.1017 ( 51)  0.1051 ( 57)
          -0.1160 ( 60)  0.1050 ( 63)  0.1050 ( 64) -0.1005 ( 66) -0.1005 ( 67)
           0.1293 ( 90)  0.1372 ( 92) -0.1303 ( 97) -0.1250 (100) -0.1346 (102)
          -0.1292 (105)  0.1304 (123)  0.1226 (128)
 CRD 15=  -0.1682 (  1) -0.1259 (  8)  0.1976 ( 11)  0.1817 ( 12) -0.1852 ( 13)
          -0.2067 ( 18)  0.1992 ( 19) -0.1289 ( 25)  0.1250 ( 29) -0.1271 ( 36)
           0.1314 ( 38) -0.1553 ( 42)  0.1537 ( 43)  0.1559 ( 58) -0.1527 ( 59)
          -0.1105 ( 95) -0.1092 ( 96) -0.1974 (115) -0.1985 (116) -0.1973 (117)
          -0.1957 (118) -0.1952 (119) -0.1963 (120) -0.1974 (121) -0.1958 (122)
          -0.1090 (126) -0.1070 (127)
 CRD 16=   0.4537 (  1)  0.4487 (  3) -0.4241 (  8) -0.4522 ( 11) -0.1413 ( 49)
           0.1462 ( 65)
 CRD 17=   0.2243 (  1)  0.1690 (  3)  0.1716 (  8)  0.2278 ( 11)  0.1366 ( 12)
           0.1537 ( 13) -0.5276 ( 16) -0.5052 ( 17)  0.1315 ( 18)  0.1495 ( 19)
          -0.1829 ( 62) -0.1013 (115)
 CRD 18=   0.3673 (  1)  0.2616 (  3) -0.1414 (  5)  0.2585 (  8)  0.3807 ( 11)
           0.2552 ( 16)  0.3046 ( 17) -0.1100 ( 18) -0.1056 ( 22) -0.1071 ( 33)
           0.1908 ( 49)  0.1205 ( 62)  0.1904 ( 65)  0.1045 ( 76) -0.1051 ( 84)
          -0.1009 ( 95) -0.1198 ( 96) -0.1072 ( 98)  0.1058 (108)  0.1210 (127)
 CRD 19=  -0.4514 ( 12) -0.4295 ( 13)  0.4473 ( 18)  0.4450 ( 19)  0.1496 ( 68)
          -0.1486 ( 69)
 CRD 20=   0.4158 ( 12)  0.3910 ( 13) -0.1051 ( 14) -0.1050 ( 15)  0.2395 ( 16)
           0.1953 ( 17)  0.3986 ( 18)  0.3960 ( 19)  0.1520 ( 68)  0.1542 ( 69)
           0.1145 (116) -0.1182 (117) -0.1082 (119)  0.1038 (122)
 CRD 21=   0.1009 (  1) -0.1280 (  3) -0.1314 (  8)  0.1011 ( 11) -0.2689 ( 16)
           0.2719 ( 17)  0.1145 ( 28)  0.1156 ( 35)  0.1057 ( 50)  0.1057 ( 51)
           0.1232 ( 52) -0.1314 ( 53)  0.1212 ( 54) -0.1335 ( 55)  0.1111 ( 63)
           0.1111 ( 64)  0.1072 ( 73)  0.1092 ( 77) -0.1068 ( 80) -0.1078 ( 81)
          -0.1513 ( 95) -0.1413 ( 96) -0.1689 (101) -0.1589 (104) -0.1420 (115)
          -0.1343 (116)  0.1370 (117)  0.1401 (118) -0.1430 (119) -0.1354 (120)
           0.1390 (121)  0.1421 (122)  0.1670 (124)  0.1611 (125)  0.1479 (126)
           0.1420 (127)
 CRD 22=  -0.2439 (  2) -0.2439 (  4)  0.2455 (  7)  0.2455 ( 10)  0.1311 ( 12)
          -0.1235 ( 18) -0.1534 ( 20) -0.1534 ( 21)  0.1229 ( 22)  0.1536 ( 32)
          -0.1227 ( 33)  0.1536 ( 39) -0.1085 ( 40) -0.1348 ( 41) -0.1348 ( 46)
           0.1759 ( 47)  0.1759 ( 48) -0.1166 ( 49)  0.1210 ( 50)  0.1210 ( 51)
           0.1337 ( 56)  0.1153 ( 57)  0.1337 ( 61) -0.1073 ( 63) -0.1073 ( 64)
           0.1134 ( 65) -0.1875 ( 66) -0.1875 ( 67)  0.1516 ( 95)  0.1723 ( 96)
           0.1359 ( 98)  0.1049 ( 99)  0.1302 (108)  0.1498 (126)  0.1693 (127)
 CRD 23=   0.1779 ( 16) -0.1747 ( 17)  0.1036 ( 63)  0.1036 ( 64) -0.1341 ( 73)
          -0.1382 ( 77) -0.1101 ( 78)  0.1339 ( 80)  0.1368 ( 81)  0.1103 ( 82)
          -0.1592 ( 88) -0.1639 ( 93) -0.1149 ( 95) -0.1160 ( 96) -0.1145 (101)
          -0.1155 (104)  0.1623 (112)  0.1575 (113)  0.1859 (115)  0.1811 (116)
          -0.1832 (117) -0.1879 (118)  0.1887 (119)  0.1840 (120) -0.1873 (121)
          -0.1920 (122)  0.1215 (124)  0.1236 (125)  0.1185 (126)  0.1206 (127)
 CRD 24=  -0.1132 (  3)  0.1086 (  7)  0.1136 (  8)  0.1086 ( 10)  0.2027 ( 28)
          -0.1953 ( 35) -0.1179 ( 45)  0.1725 ( 50)  0.1725 ( 51)  0.1086 ( 60)
          -0.1622 ( 63) -0.1622 ( 64)  0.1565 ( 74)  0.1535 ( 85) -0.1517 ( 95)
          -0.1212 ( 96) -0.2526 (101) -0.2221 (104) -0.1264 (106) -0.1588 (107)
          -0.1526 (110) -0.2408 (124) -0.2196 (125) -0.1503 (126) -0.1291 (127)
 CRD 25=   0.3007 (  1) -0.3080 (  3) -0.3105 (  8)  0.2975 ( 11)  0.1868 ( 12)
          -0.1872 ( 13)  0.1493 ( 16) -0.1564 ( 17)  0.1877 ( 18) -0.1859 ( 19)
          -0.1011 ( 28) -0.1352 ( 74) -0.1234 ( 76)  0.1273 ( 84)  0.1320 ( 85)
           0.1193 ( 90)  0.1130 ( 92)  0.1192 ( 95)  0.1069 ( 96) -0.1205 ( 97)
           0.1085 ( 98) -0.1252 (100)  0.1335 (101) -0.1128 (102)  0.1212 (104)
          -0.1175 (105)  0.1228 (107) -0.1126 (108) -0.1186 (110)  0.1179 (123)
          -0.1276 (124) -0.1194 (125) -0.1216 (126) -0.1134 (127)  0.1243 (128)
 CRD 26=  -0.1372 ( 40)  0.1204 ( 45)  0.1308 ( 47)  0.1308 ( 48) -0.1137 ( 50)
          -0.1137 ( 51)  0.1303 ( 57) -0.1277 ( 60)  0.1177 ( 63)  0.1177 ( 64)
          -0.1257 ( 66) -0.1257 ( 67)  0.1556 ( 90)  0.1710 ( 92)  0.3321 ( 94)
           0.1611 ( 97)  0.3167 ( 99)  0.1616 (100) -0.1298 (101)  0.1645 (102)
           0.3200 (103) -0.1208 (104)  0.1649 (105)  0.3354 (106)  0.1705 (123)
          -0.1258 (124) -0.1213 (125)  0.1551 (128)
 CRD 27=  -0.3316 (  2) -0.3316 (  4)  0.1054 (  5) -0.3308 (  7) -0.3308 ( 10)
           0.1036 ( 26)  0.1036 ( 27)  0.1036 ( 30)  0.1036 ( 31)  0.1282 ( 40)
           0.1228 ( 45) -0.1033 ( 47) -0.1033 ( 48)  0.1356 ( 57)  0.1176 ( 60)
          -0.1073 ( 66) -0.1073 ( 67)  0.1450 ( 90) -0.1265 ( 92) -0.2643 ( 94)
          -0.1407 ( 97) -0.1513 (100)  0.1314 (102)  0.2792 (103)  0.1207 (105)
          -0.1130 (123)  0.1585 (128)
 CRD 28=   0.2387 ( 12) -0.2282 ( 13)  0.3057 ( 16) -0.2963 ( 17)  0.2362 ( 18)
          -0.2335 ( 19)  0.1080 ( 29)  0.1102 ( 36)  0.1629 ( 73)  0.1604 ( 77)
          -0.1692 ( 80) -0.1526 ( 81)  0.1012 ( 86) -0.1014 ( 88) -0.1157 ( 92)
          -0.1165 ( 93) -0.1274 ( 95) -0.1086 ( 96) -0.1489 (101)  0.1165 (102)
          -0.1301 (104)  0.1151 (105)  0.1178 (112) -0.1150 (123)  0.1436 (124)
           0.1218 (125)  0.1387 (126)  0.1170 (127)
 CRD 29=  -0.2552 (  6) -0.2553 (  9)  0.1007 ( 15)  0.1336 ( 16)  0.1603 ( 17)
           0.1893 ( 25)  0.1698 ( 29)  0.1686 ( 36)  0.1894 ( 38) -0.1554 ( 52)
          -0.1479 ( 53) -0.1559 ( 54) -0.1485 ( 55) -0.2608 ( 62)  0.1049 ( 73)
          -0.1238 ( 77) -0.1027 ( 80)  0.1238 ( 81)  0.1291 ( 88) -0.1041 ( 93)
           0.1164 (104)  0.1036 (112) -0.1285 (113) -0.2341 (116)  0.2366 (117)
           0.2245 (119) -0.2253 (122) -0.1128 (125)
 CRD 30=   0.1120 ( 13)  0.2752 ( 14) -0.2752 ( 15) -0.1023 ( 19) -0.2381 ( 42)
          -0.2346 ( 43)  0.2346 ( 58)  0.2393 ( 59)  0.1769 ( 68) -0.1773 ( 69)
          -0.1540 ( 73)  0.1474 ( 77) -0.1448 ( 80)  0.1584 ( 81)  0.1250 ( 95)
          -0.1064 (104) -0.2282 (116) -0.2300 (117)  0.2199 (119)  0.2150 (122)
          -0.1129 (125)  0.1202 (126)
 CRD 31=  -0.2628 (  6)  0.2626 (  9) -0.2489 ( 14)  0.2487 ( 15)  0.1690 ( 25)
           0.1727 ( 29) -0.1740 ( 36) -0.1676 ( 38) -0.1303 ( 49) -0.1866 ( 52)
          -0.1905 ( 53)  0.1847 ( 54)  0.1923 ( 55)  0.1317 ( 65)  0.1090 ( 88)
          -0.1221 ( 93)  0.1631 ( 95) -0.1505 (104) -0.1235 (112)  0.1068 (113)
          -0.1383 (115) -0.1381 (118) -0.1003 (119)  0.1300 (120)  0.1303 (121)
          -0.1007 (122) -0.1523 (125)  0.1622 (126)
 CRD 32=   0.1527 (  1) -0.1221 (  2)  0.1144 (  3) -0.1221 (  4)  0.1203 (  7)
          -0.1009 (  8)  0.1203 ( 10) -0.1577 ( 11) -0.1476 ( 22)  0.1181 ( 25)
           0.1481 ( 33) -0.1219 ( 38) -0.1317 ( 41) -0.1208 ( 42) -0.1179 ( 43)
          -0.1317 ( 46)  0.2171 ( 49)  0.1339 ( 56)  0.1262 ( 58)  0.1125 ( 59)
           0.1339 ( 61) -0.2245 ( 65)  0.1361 ( 76)  0.1381 ( 84)  0.1087 ( 88)
          -0.1380 ( 95) -0.1411 ( 96) -0.1100 ( 98)  0.1170 (107) -0.1084 (108)
           0.1263 (110)  0.1135 (113) -0.1595 (115) -0.1559 (118)  0.1822 (120)
           0.1875 (121) -0.1364 (126) -0.1402 (127)
 CRD 33=  -0.3104 (  5)  0.1058 ( 11)  0.1316 ( 12)  0.1289 ( 13) -0.2097 ( 14)
          -0.2069 ( 15)  0.1155 ( 18)  0.1407 ( 19) -0.1615 ( 49) -0.1123 ( 62)
          -0.1584 ( 65) -0.2047 ( 68) -0.2080 ( 69) -0.1197 ( 71)  0.1137 ( 72)
           0.1075 ( 79) -0.1236 ( 86)  0.2022 ( 95) -0.1948 (104) -0.1302 (116)
           0.1361 (117)  0.1331 (119) -0.1249 (122)  0.1896 (125) -0.2019 (126)
           0.1115 (129) -0.1196 (130) -0.1166 (131)  0.1168 (132)
 CRD 34=   0.1268 (  1) -0.1178 (  3)  0.1226 (  8) -0.1200 ( 11) -0.2183 ( 12)
           0.2001 ( 13)  0.2243 ( 18) -0.1933 ( 19) -0.1197 ( 22)  0.1188 ( 28)
           0.1246 ( 33) -0.1144 ( 35)  0.1177 ( 52) -0.1062 ( 53) -0.1115 ( 54)
           0.1121 ( 55)  0.1788 ( 71)  0.1653 ( 72)  0.1218 ( 74)  0.1187 ( 76)
           0.1854 ( 79)  0.1237 ( 84)  0.1169 ( 85)  0.1584 ( 86) -0.1502 ( 88)
          -0.1730 ( 93) -0.1381 ( 98) -0.1401 (107) -0.1435 (108) -0.1010 (109)
          -0.1358 (110) -0.1009 (111) -0.1700 (112) -0.1536 (113) -0.1320 (115)
          -0.1156 (116) -0.1045 (117) -0.1273 (118) -0.1251 (119) -0.1087 (120)
          -0.1137 (121) -0.1365 (122)  0.1047 (129)
 CRD 35=   0.1053 (  2)  0.1053 (  4)  0.1421 (  5)  0.1055 (  7)  0.1055 ( 10)
          -0.2251 ( 14) -0.2265 ( 15)  0.2087 ( 16)  0.1720 ( 17)  0.2255 ( 44)
           0.1019 ( 52)  0.1047 ( 53)  0.1035 ( 54)  0.1029 ( 55) -0.2928 ( 62)
           0.1829 ( 73) -0.1600 ( 77) -0.1846 ( 80)  0.1594 ( 81) -0.1007 ( 88)
           0.1069 (113) -0.2686 (115)  0.2732 (118)  0.2567 (120) -0.2497 (121)
 CRD 36=   0.1306 ( 12)  0.1271 ( 13) -0.2322 ( 14)  0.2312 ( 15) -0.1292 ( 18)
          -0.1255 ( 19) -0.1573 ( 23)  0.1594 ( 34) -0.1220 ( 41) -0.1220 ( 46)
           0.1183 ( 56) -0.1001 ( 59)  0.1183 ( 61)  0.1965 ( 68) -0.1988 ( 69)
          -0.1096 ( 71)  0.1582 ( 72) -0.1090 ( 79)  0.1554 ( 86) -0.1006 ( 88)
           0.1002 ( 93) -0.1967 ( 96)  0.1690 (101)  0.1081 (112)  0.1561 (115)
           0.1649 (118) -0.1650 (120) -0.1523 (121)  0.1684 (124) -0.1907 (127)
          -0.1374 (129)  0.1270 (130) -0.1355 (131)  0.1323 (132)
 CRD 37=  -0.1356 (  1)  0.3172 (  5) -0.1433 ( 11)  0.1071 ( 13) -0.1064 ( 17)
           0.1167 ( 19)  0.1425 ( 23)  0.1355 ( 34) -0.1414 ( 41) -0.1414 ( 46)
           0.1620 ( 49) -0.1462 ( 56) -0.1462 ( 61)  0.1664 ( 65) -0.1437 ( 68)
          -0.1353 ( 69)  0.1176 ( 72)  0.1003 ( 79) -0.1168 ( 86) -0.1915 ( 96)
          -0.1363 ( 98)  0.1821 (101)  0.1385 (108) -0.1566 (120)  0.1635 (121)
          -0.1962 (124)  0.1947 (127) -0.1330 (130)  0.1249 (132)
 CRD 38=   0.3053 (  2)  0.3053 (  4) -0.2431 (  6)  0.3061 (  7) -0.2437 (  9)
           0.3061 ( 10)  0.1089 ( 40)  0.1120 ( 45) -0.1130 ( 47) -0.1130 ( 48)
          -0.1245 ( 50) -0.1245 ( 51)  0.1077 ( 57)  0.1116 ( 60) -0.1240 ( 63)
          -0.1240 ( 64) -0.1133 ( 66) -0.1133 ( 67)  0.1226 ( 90) -0.1209 ( 92)
          -0.2441 ( 94) -0.1224 ( 97) -0.1177 (100)  0.1215 (102)  0.2434 (103)
           0.1262 (105) -0.1264 (123)  0.1172 (128)
 CRD 39=  -0.1276 ( 12)  0.1986 ( 16) -0.2097 ( 17) -0.1217 ( 18)  0.1452 ( 42)
          -0.1531 ( 43) -0.1342 ( 52)  0.1161 ( 53) -0.1390 ( 54)  0.1138 ( 55)
           0.1473 ( 58) -0.1494 ( 59) -0.1511 ( 70) -0.2370 ( 78)  0.2396 ( 82)
           0.1442 ( 87) -0.1120 ( 88)  0.1015 ( 96) -0.1208 ( 98) -0.1816 (107)
           0.1246 (108)  0.1041 (109)  0.1774 (110) -0.1058 (111)  0.1109 (113)
          -0.1811 (115) -0.1535 (116)  0.1518 (117)  0.1783 (118) -0.1859 (119)
          -0.1583 (120)  0.1588 (121)  0.1852 (122) -0.1101 (129)  0.1164 (131)
 CRD 40=   0.1750 (  2)  0.1750 (  4) -0.1933 (  6) -0.1748 (  7)  0.1933 (  9)
          -0.1748 ( 10)  0.1098 ( 20)  0.1098 ( 21) -0.1373 ( 24) -0.1097 ( 32)
           0.1375 ( 37) -0.1097 ( 39)  0.1010 ( 47)  0.1010 ( 48)  0.1049 ( 50)
           0.1049 ( 51) -0.1042 ( 63) -0.1042 ( 64) -0.1018 ( 66) -0.1018 ( 67)
           0.1917 ( 90) -0.1831 ( 92)  0.1924 ( 97)  0.3917 ( 99)  0.1955 (100)
          -0.1823 (102) -0.1792 (105) -0.3578 (106) -0.1786 (123)  0.1962 (128)
 CRD 41=   0.3201 ( 75)  0.3013 ( 83) -0.3601 (109) -0.3796 (111) -0.3250 (129)
          -0.3205 (130) -0.3450 (131) -0.3362 (132)
 CRD 42=   0.3453 ( 75) -0.3621 ( 83)  0.3742 (109) -0.3542 (111)  0.3441 (129)
           0.3403 (130) -0.3275 (131) -0.3210 (132)

 THE DETERMINANT OF THE G MATRIX IS 10**(    -4)


                     --------------------
                     INTERNAL COORDINATES
                     --------------------

                 - - ATOMS - -         COORDINATE      COORDINATE
 NO.   TYPE    I  J  K  L  M  N        (BOHR,RAD)       (ANG,DEG)
 ----------------------------------------------------------------
   1 STRETCH   1 10                     2.1373113       1.1310165
   2 STRETCH   1 16                     3.7908926       2.0060541
   3 STRETCH   1 11                     2.1376362       1.1311884
   4 STRETCH   1 16                     3.7908926       2.0060541
   5 STRETCH   1  2                     2.9392149       1.5553656
   6 STRETCH   1  7                     3.0250026       1.6007626
   7 STRETCH   2 16                     3.7908923       2.0060540
   8 STRETCH   2  4                     2.1378728       1.1313136
   9 STRETCH   2  3                     3.0248385       1.6006757
  10 STRETCH   2 16                     3.7908923       2.0060540
  11 STRETCH   2  5                     2.1370409       1.1308734
  12 STRETCH   3 15                     2.0753841       1.0982461
  13 STRETCH   3 14                     2.0766351       1.0989080
  14 STRETCH   3  6                     2.8293717       1.4972392
  15 STRETCH   6  7                     2.8293193       1.4972114
  16 STRETCH   6  9                     2.0711567       1.0960090
  17 STRETCH   6  8                     2.0707982       1.0958193
  18 STRETCH   7 13                     2.0749964       1.0980409
  19 STRETCH   7 12                     2.0770094       1.0991061
  20 BEND      1  2 16                  1.1726961      67.1905377
  21 BEND      1  2 16                  1.1726961      67.1905377
  22 BEND      1  2  4                  2.1274112     121.8916816
  23 BEND      1  7  6                  1.9415621     111.2433146
  24 BEND      1  2  3                  1.8385144     105.3391134
  25 BEND      1  7 13                  1.9201795     110.0181838
  26 BEND      1 16  2                  0.7962007      45.6189374
  27 BEND      1 16  2                  0.7962007      45.6189374
  28 BEND      1  2  5                  2.0749136     118.8837898
  29 BEND      1  7 12                  1.9248359     110.2849727
  30 BEND      1 16  2                  0.7962007      45.6189374
  31 BEND      1 16  2                  0.7962007      45.6189374
  32 BEND      2  1 16                  1.1726959      67.1905248
  33 BEND      2  1 11                  2.1269410     121.8647435
  34 BEND      2  3  6                  1.9415885     111.2448253
  35 BEND      2  1 10                  2.0755168     118.9183557
  36 BEND      2  3 14                  1.9180696     109.8972951
  37 BEND      2  1  7                  1.8381062     105.3157280
  38 BEND      2  3 15                  1.9263824     110.3735825
  39 BEND      2  1 16                  1.1726959      67.1905248
  40 BEND      3  2  4                  1.6066730      92.0555813
  41 BEND      3  2 16                  3.0081198     172.3525690
  42 BEND      3  6  8                  1.9349323     110.8634516
  43 BEND      3  6  9                  1.9382050     111.0509670
  44 BEND      3  6  7                  1.8613801     106.6492223
  45 BEND      3  2  5                  1.6221105      92.9400849
  46 BEND      3  2 16                  3.0081198     172.3525690
  47 BEND      4  2 16                  1.5846965      90.7964208
  48 BEND      4  2 16                  1.5846965      90.7964208
  49 BEND      4  2  5                  2.0049032     114.8724929
  50 BEND      5  2 16                  1.6108316      92.2938501
  51 BEND      5  2 16                  1.6108316      92.2938501
  52 BEND      6  7 12                  1.9194581     109.9768500
  53 BEND      6  7 13                  1.9195995     109.9849482
  54 BEND      6  3 14                  1.9141352     109.6718685
  55 BEND      6  3 15                  1.9255949     110.3284632
  56 BEND      7  1 16                  3.0090796     172.4075641
  57 BEND      7  1 11                  1.6096391      92.2255292
  58 BEND      7  6  8                  1.9425443     111.2995915
  59 BEND      7  6  9                  1.9306107     110.6158470
  60 BEND      7  1 10                  1.6195431      92.7929821
  61 BEND      7  1 16                  3.0090796     172.4075641
  62 BEND      8  6  9                  1.8574932     106.4265181
  63 BEND     10  1 16                  1.6074583      92.1005749
  64 BEND     10  1 16                  1.6074583      92.1005749
  65 BEND     10  1 11                  2.0047423     114.8632736
  66 BEND     11  1 16                  1.5878790      90.9787628
  67 BEND     11  1 16                  1.5878790      90.9787628
  68 BEND     12  7 13                  1.8354181     105.1617087
  69 BEND     14  3 15                  1.8352152     105.1500830
  70 TORSION   1  2  3  6              -0.0421064      -2.4125199
  71 TORSION   1  2  3 14              -2.1654085    -124.0687688
  72 TORSION   1  2  3 15               2.1014877     120.4063742
  73 TORSION   1  7  6  8               2.0309991     116.3676741
  74 TORSION   1 16  2  5               2.1031783     120.5032424
  75 TORSION   1 16  2  3              -0.2209380     -12.6588138
  76 TORSION   1 16  2  4              -2.1740731    -124.5652148
  77 TORSION   1  7  6  9              -2.1910207    -125.5362393
  78 TORSION   1  7  6  3              -0.0814705      -4.6679144
  79 TORSION   2  1  7 12               2.1902215     125.4904456
  80 TORSION   2  3  6  8              -2.0410079    -116.9411390
  81 TORSION   2  3  6  9               2.1810006     124.9621283
  82 TORSION   2  3  6  7               0.0763118       4.3723459
  83 TORSION   2 16  1  7               0.1653750       9.4752918
  84 TORSION   2 16  1 11               2.1719573     124.4439881
  85 TORSION   2 16  1 10              -2.1054155    -120.6314217
  86 TORSION   2  1  7 13              -2.0760922    -118.9513205
  87 TORSION   2  1  7  6               0.0555461       3.1825557
  88 TORSION   3  6  7 13               2.0505038     117.4852147
  89 TORSION   3  2  1  7              -0.0076913      -0.4406815
  90 TORSION   3  2  1 11               1.7824999     102.1297236
  91 TORSION   3  2  1 16               3.1113477     178.2670900
  92 TORSION   3  2  1 10              -1.7890545    -102.5052743
  93 TORSION   3  6  7 12              -2.2192525    -127.1537995
  94 TORSION   4  2  1 10               2.7071649     155.1091239
  95 TORSION   4  2  3 15              -2.0188933    -115.6740642
  96 TORSION   4  2  3 14              -0.0026042      -0.1492072
  97 TORSION   4  2  1  7              -1.7946572    -102.8262833
  98 TORSION   4  2  3  6               2.1206979     121.5070418
  99 TORSION   4  2  1 11              -0.0044659      -0.2558782
 100 TORSION   4  2  1 16               1.3243818      75.8814882
 101 TORSION   5  2  3 15              -0.0110462      -0.6329033
 102 TORSION   5  2  1  7               1.7767922     101.8026958
 103 TORSION   5  2  1 11              -2.7162018    -155.6268991
 104 TORSION   5  2  3 14               2.0052429     114.8919537
 105 TORSION   5  2  1 16              -1.3873541     -79.4895327
 106 TORSION   5  2  1 10              -0.0045710      -0.2618970
 107 TORSION   5  2  3  6              -2.1546403    -123.4517973
 108 TORSION   6  7  1 11              -2.1077198    -120.7634478
 109 TORSION   6  7  1 16              -0.1024469      -5.8697729
 110 TORSION   6  7  1 10               2.1677302     124.2017912
 111 TORSION   6  3  2 16               0.1689260       9.6787455
 112 TORSION   7  6  3 14               2.2019035     126.1597790
 113 TORSION   7  6  3 15              -2.0677349    -118.4724854
 114 TORSION   7  1  2 16              -3.1190390    -178.7077715
 115 TORSION   8  6  3 14               0.0845838       4.8462942
 116 TORSION   8  6  3 15               2.0981306     120.2140297
 117 TORSION   8  6  7 13              -2.1202120    -121.4791968
 118 TORSION   8  6  7 12              -0.1067829      -6.1182111
 119 TORSION   9  6  3 14              -1.9765930    -113.2504385
 120 TORSION   9  6  3 15               0.0369538       2.1172971
 121 TORSION   9  6  7 13              -0.0590464      -3.3831101
 122 TORSION   9  6  7 12               1.9543826     111.9778756
 123 TORSION  10  1  2 16               1.3827831      79.2276357
 124 TORSION  10  1  7 13               0.0360919       2.0679151
 125 TORSION  10  1  7 12              -1.9807797    -113.4903189
 126 TORSION  11  1  7 13               2.0438273     117.1026761
 127 TORSION  11  1  7 12               0.0269556       1.5444422
 128 TORSION  11  1  2 16              -1.3288477     -76.1373664
 129 TORSION  12  7  1 16               2.0322285     116.4381171
 130 TORSION  13  7  1 16              -2.2340851    -128.0036490
 131 TORSION  14  3  2 16              -1.9543761    -111.9775034
 132 TORSION  15  3  2 16               2.3125201     132.4976395

     ------------------------------------------
     THE POINT GROUP IS C1 , NAXIS= 0, ORDER= 1
     ------------------------------------------

     DIMENSIONS OF THE SYMMETRY SUBSPACES ARE
 A   =   54

 ..... DONE SETTING UP THE RUN .....
 STEP CPU TIME =     0.09 TOTAL CPU TIME =          0.1 (      0.0 MIN)
 TOTAL WALL CLOCK TIME=          0.1 SECONDS, CPU UTILIZATION IS    81.82%


          -----------------------------
          STATIONARY POINT LOCATION RUN
          -----------------------------

 OBTAINING INITIAL HESSIAN, HESS=CALC    

     ---------------------------------
     HESSIAN MATRIX CONTROL PARAMETERS
     ---------------------------------
     METHOD=ANALYTIC   NVIB  =       2   VIBSIZ= 0.01000
     RDHESS=       F   PURIFY=       F   PRTIFC=       F
     VIBANL=       F   DECOMP=       F   PROJCT=       F
     SCLFAC= 1.00000   PRTSCN=       F   NPRT  =       0
     PULCOR=       F   NPUN  =       0   REDOVB=       T
     HSSTYP=GENERAL 
 Old integral subroutine is used

     ------------------------------
     CPHF RESPONSE SOLUTION OPTIONS
     ------------------------------
     POLAR  =       F     NWORD  =       0
     CPHF   =AO      

          ********************
          1 ELECTRON INTEGRALS
          ********************
 ...... END OF ONE-ELECTRON INTEGRALS ......
 STEP CPU TIME =     0.02 TOTAL CPU TIME =          0.1 (      0.0 MIN)
 TOTAL WALL CLOCK TIME=          0.2 SECONDS, CPU UTILIZATION IS    73.33%

          -------------
          GUESS OPTIONS
          -------------
          GUESS =HUCKEL            NORB  =       0          NORDER=       0
          MIX   =       F          PRTMO =       F          PUNMO =       F
          TOLZ  = 1.0E-08          TOLE  = 1.0E-05
          SYMDEN=       F          PURIFY=       F

 INITIAL GUESS ORBITALS GENERATED BY HUCKEL   ROUTINE.
 HUCKEL GUESS REQUIRES     43608 WORDS.

 SYMMETRIES FOR INITIAL GUESS ORBITALS FOLLOW.  ALPHA SET(S).
    37 ORBITALS ARE OCCUPIED (   19 CORE ORBITALS).
    20=A       21=A       22=A       23=A       24=A       25=A       26=A   
    27=A       28=A       29=A       30=A       31=A       32=A       33=A   
    34=A       35=A       36=A       37=A       38=A       39=A       40=A   
    41=A       42=A       43=A       44=A       45=A       46=A       47=A   

 SYMMETRIES FOR INITIAL GUESS ORBITALS FOLLOW.   BETA SET(S).
    37 ORBITALS ARE OCCUPIED (   19 CORE ORBITALS).
    20=A       21=A       22=A       23=A       24=A       25=A       26=A   
    27=A       28=A       29=A       30=A       31=A       32=A       33=A   
    34=A       35=A       36=A       37=A       38=A       39=A       40=A   
    41=A       42=A       43=A       44=A       45=A       46=A       47=A   
 ...... END OF INITIAL ORBITAL SELECTION ......
 STEP CPU TIME =     0.03 TOTAL CPU TIME =          0.1 (      0.0 MIN)
 TOTAL WALL CLOCK TIME=          0.2 SECONDS, CPU UTILIZATION IS    77.78%

                    ----------------------
                    AO INTEGRAL TECHNOLOGY
                    ----------------------
     S,P,L SHELL ROTATED AXIS INTEGRALS, REPROGRAMMED BY
        KAZUYA ISHIMURA (IMS) AND JOSE SIERRA (SYNSTAR).
     S,P,D,L SHELL ROTATED AXIS INTEGRALS PROGRAMMED BY
        KAZUYA ISHIMURA (INSTITUTE FOR MOLECULAR SCIENCE).
     S,P,D,F,G SHELL TO TOTAL QUARTET ANGULAR MOMENTUM SUM 5,
        ERIC PROGRAM BY GRAHAM FLETCHER (ELORET AND NASA ADVANCED
        SUPERCOMPUTING DIVISION, AMES RESEARCH CENTER).
     S,P,D,F,G,L SHELL GENERAL RYS QUADRATURE PROGRAMMED BY
        MICHEL DUPUIS (PACIFIC NORTHWEST NATIONAL LABORATORY).

          --------------------
          2 ELECTRON INTEGRALS
          --------------------

 THE -PK- OPTION IS OFF, THE INTEGRALS ARE NOT IN SUPERMATRIX FORM.
 STORING   15000 INTEGRALS/RECORD ON DISK, USING 12 BYTES/INTEGRAL.
 TWO ELECTRON INTEGRAL EVALUATION REQUIRES   90721 WORDS OF MEMORY.
 SCHWARZ INEQUALITY OVERHEAD:      1426 INTEGRALS, T=        0.01
 II,JST,KST,LST =  1  1  1  1 NREC =         1 INTLOC =    1
 II,JST,KST,LST =  2  1  1  1 NREC =         1 INTLOC =    2
 II,JST,KST,LST =  3  1  1  1 NREC =         1 INTLOC =   34
 II,JST,KST,LST =  4  1  1  1 NREC =         1 INTLOC =  138
 II,JST,KST,LST =  5  1  1  1 NREC =         1 INTLOC = 1348
 II,JST,KST,LST =  6  1  1  1 NREC =         1 INTLOC = 1904
 II,JST,KST,LST =  7  1  1  1 NREC =         1 INTLOC = 6740
 II,JST,KST,LST =  8  1  1  1 NREC =         1 INTLOC = 8768
 II,JST,KST,LST =  9  1  1  1 NREC =         1 INTLOC =11204
 II,JST,KST,LST = 10  1  1  1 NREC =         1 INTLOC =13663
 II,JST,KST,LST = 11  1  1  1 NREC =         3 INTLOC =  583
 II,JST,KST,LST = 12  1  1  1 NREC =         3 INTLOC = 5606
 II,JST,KST,LST = 13  1  1  1 NREC =         5 INTLOC = 8017
 II,JST,KST,LST = 14  1  1  1 NREC =         6 INTLOC = 3748
 II,JST,KST,LST = 15  1  1  1 NREC =         7 INTLOC =  695
 II,JST,KST,LST = 16  1  1  1 NREC =         7 INTLOC =13950
 II,JST,KST,LST = 17  1  1  1 NREC =         8 INTLOC =13594
 II,JST,KST,LST = 18  1  1  1 NREC =         9 INTLOC =14713
 II,JST,KST,LST = 19  1  1  1 NREC =        11 INTLOC = 2417
 II,JST,KST,LST = 20  1  1  1 NREC =        12 INTLOC = 6788
 II,JST,KST,LST = 21  1  1  1 NREC =        13 INTLOC =12939
 II,JST,KST,LST = 22  1  1  1 NREC =        14 INTLOC = 9778
 II,JST,KST,LST = 23  1  1  1 NREC =        18 INTLOC = 9905
 II,JST,KST,LST = 24  1  1  1 NREC =        25 INTLOC = 4564
 II,JST,KST,LST = 25  1  1  1 NREC =        38 INTLOC =10788
 SCHWARZ INEQUALITY TEST SKIPPED       10802 INTEGRAL BLOCKS.
 TOTAL NUMBER OF NONZERO TWO-ELECTRON INTEGRALS =              792389
         53 INTEGRAL RECORDS WERE STORED ON DISK FILE  8.
  ...... END OF TWO-ELECTRON INTEGRALS .....
 STEP CPU TIME =     0.17 TOTAL CPU TIME =          0.3 (      0.0 MIN)
 TOTAL WALL CLOCK TIME=          0.3 SECONDS, CPU UTILIZATION IS    88.57%

          ---------------------------
                  UHF SCF CALCULATION
          ---------------------------

     NUCLEAR ENERGY =       441.1266365624
     MAXIT = 30     NPUNCH=  2     MULT=  1
     EXTRAP=T  DAMP=F  SHIFT=F  RSTRCT=F  DIIS=F  SOSCF=T
     DENSITY MATRIX CONV=  1.00E-05
     SOSCF WILL OPTIMIZE     629 ALPHA AND     629 BETA ROTATION ANGLES.
     SOGTOL= 2.500E-01
     MEMORY REQUIRED FOR UHF/ROHF ITERS=     68830 WORDS.

 ITER EX      TOTAL ENERGY        E CHANGE  DENSITY CHANGE    ORB. GRAD 
   1  0    -2737.6954980992 -2737.6954980992  12.338250534   0.000000000
          ---------------START SECOND ORDER SCF---------------
   2  1    -2738.3561154386    -0.6606173393   0.181929234   0.049359793
   3  2    -2738.3801378908    -0.0240224523   0.045308876   0.015101680
   4  3    -2738.3836444815    -0.0035065907   0.008126320   0.001835119
   5  4    -2738.3837253151    -0.0000808336   0.001377985   0.000661049
   6  5    -2738.3837306240    -0.0000053089   0.000383492   0.000218759
   7  6    -2738.3837311470    -0.0000005230   0.000141450   0.000062173
   8  7    -2738.3837311992    -0.0000000522   0.000028179   0.000011597
   9  8    -2738.3837312024    -0.0000000032   0.000009695   0.000002946
  10  9    -2738.3837312027    -0.0000000003   0.000004525   0.000001024

          -----------------
          DENSITY CONVERGED
          -----------------
     TIME TO FORM FOCK OPERATORS=       0.2 SECONDS (       0.0 SEC/ITER)
     TIME TO SOLVE SCF EQUATIONS=       0.0 SECONDS (       0.0 SEC/ITER)

 FINAL UHF ENERGY IS    -2738.3837312027 AFTER  10 ITERATIONS

          --------------------
          SPIN SZ   =    0.000
          S-SQUARED =   -0.000
          --------------------

  ----- ALPHA SET ----- 

          ------------
          EIGENVECTORS
          ------------

                      1          2          3          4          5
                 -485.1718   -64.0772   -58.2093   -58.2055   -58.2054
                     A          A          A          A          A   
    1  C  1  S    0.000002   0.000303   0.000031  -0.000018  -0.000000
    2  C  1  S   -0.000011  -0.001751  -0.000204   0.000115   0.000003
    3  C  1  X    0.000012   0.002230   0.000233  -0.000123  -0.000003
    4  C  1  Y   -0.000008  -0.001393  -0.000131   0.000090   0.000004
    5  C  1  Z    0.000000   0.000076   0.000008  -0.000003   0.000049
    6  C  2  S    0.000002   0.000303   0.000031   0.000018  -0.000000
    7  C  2  S   -0.000011  -0.001752  -0.000204  -0.000115   0.000002
    8  C  2  X    0.000008   0.001359   0.000127   0.000088  -0.000004
    9  C  2  Y   -0.000012  -0.002250  -0.000235  -0.000125   0.000003
   10  C  2  Z    0.000000   0.000076   0.000009   0.000003   0.000049
   11  C  3  S    0.000000   0.000035   0.000004   0.000002  -0.000000
   12  C  3  S   -0.000002  -0.000400  -0.000040  -0.000019   0.000001
   13  C  3  X    0.000000   0.000097   0.000015   0.000003  -0.000000
   14  C  3  Y   -0.000001  -0.000255  -0.000025  -0.000013   0.000001
   15  C  3  Z   -0.000000  -0.000009  -0.000001  -0.000000  -0.000012
   16  H  4  S   -0.000001  -0.000356  -0.000003  -0.000031  -0.000041
   17  H  5  S   -0.000001  -0.000312  -0.000002  -0.000024   0.000038
   18  C  6  S   -0.000000  -0.000003  -0.000000  -0.000000   0.000000
   19  C  6  S    0.000000   0.000047   0.000002   0.000000  -0.000000
   20  C  6  X   -0.000000  -0.000027  -0.000003  -0.000001  -0.000000
   21  C  6  Y    0.000000   0.000028   0.000003  -0.000001   0.000000
   22  C  6  Z    0.000000   0.000003   0.000000  -0.000000   0.000002
   23  C  7  S    0.000000   0.000035   0.000004  -0.000002  -0.000000
   24  C  7  S   -0.000002  -0.000400  -0.000040   0.000019   0.000001
   25  C  7  X    0.000001   0.000253   0.000025  -0.000013  -0.000001
   26  C  7  Y   -0.000000  -0.000102  -0.000015   0.000003   0.000000
   27  C  7  Z   -0.000000  -0.000007  -0.000001   0.000000  -0.000012
   28  H  8  S   -0.000000  -0.000001   0.000000  -0.000000   0.000000
   29  H  9  S   -0.000000  -0.000003   0.000000   0.000000   0.000000
   30  H 10  S   -0.000001  -0.000319  -0.000002   0.000024   0.000038
   31  H 11  S   -0.000001  -0.000349  -0.000002   0.000030  -0.000041
   32  H 12  S    0.000000   0.000045   0.000003  -0.000003   0.000001
   33  H 13  S    0.000000   0.000046   0.000003  -0.000003  -0.000001
   34  H 14  S    0.000000   0.000046   0.000003   0.000003   0.000001
   35  H 15  S    0.000000   0.000045   0.000003   0.000003  -0.000001
   36  BR16  S    0.994694   0.419597  -0.000862   0.000000  -0.000001
   37  BR16  S    0.014821  -1.059843   0.002193  -0.000000   0.000002
   38  BR16  X    0.000006  -0.001290  -0.696447   0.707539  -0.012568
   39  BR16  Y   -0.000006   0.001310   0.707096   0.696543   0.025483
   40  BR16  Z    0.000000  -0.000047  -0.026974  -0.008925   0.992504
   41  BR16  S   -0.073404   2.443282  -0.004730   0.000000  -0.000006
   42  BR16  X   -0.000003  -0.000397  -0.013125   0.013229  -0.000235
   43  BR16  Y    0.000003   0.000403   0.013325   0.013023   0.000476
   44  BR16  Z   -0.000000  -0.000018  -0.000509  -0.000167   0.018543
   45  BR16 XX    0.032047  -1.127666   0.002122   0.000088   0.000001
   46  BR16 YY    0.032047  -1.127667   0.002119  -0.000088  -0.000001
   47  BR16 ZZ    0.032046  -1.127637   0.002205  -0.000000   0.000007
   48  BR16 XY   -0.000001   0.000042   0.000099  -0.000002   0.000003
   49  BR16 XZ    0.000000  -0.000001  -0.000004   0.000001   0.000072
   50  BR16 YZ   -0.000000   0.000001   0.000004   0.000003  -0.000073
   51  BR16  S    0.000098   0.019383   0.000173  -0.000000  -0.000001
   52  BR16  X    0.000009   0.001619   0.001077  -0.000966   0.000015
   53  BR16  Y   -0.000010  -0.001643  -0.001094  -0.000951  -0.000032
   54  BR16  Z    0.000000   0.000076   0.000043   0.000012  -0.001302

                      6          7          8          9         10
                  -11.3078   -11.3075   -11.2573   -11.2571   -11.2235
                     A          A          A          A          A   
    1  C  1  S    0.705999   0.696685   0.002906   0.003328   0.000298
    2  C  1  S    0.029864   0.022284  -0.003650  -0.003053   0.000134
    3  C  1  X   -0.001966   0.001432  -0.002646  -0.002524   0.000059
    4  C  1  Y   -0.002376   0.002378   0.001542   0.001514   0.000003
    5  C  1  Z    0.000066   0.000005  -0.000034  -0.000037   0.000016
    6  C  2  S   -0.696079   0.706596  -0.002499   0.003643   0.000298
    7  C  2  S   -0.029547   0.022704   0.003273  -0.003457   0.000134
    8  C  2  X   -0.002440  -0.002365   0.001320  -0.001640  -0.000003
    9  C  2  Y   -0.001949  -0.001369  -0.002357   0.002839  -0.000059
   10  C  2  Z   -0.000028   0.000023   0.000014  -0.000029   0.000015
   11  C  3  S    0.002033  -0.002788  -0.659568   0.740981   0.003709
   12  C  3  S    0.003694  -0.003498  -0.024482   0.027626  -0.006180
   13  C  3  X   -0.001299   0.001061  -0.000154   0.000172  -0.004432
   14  C  3  Y    0.002304  -0.002304   0.000166  -0.000504  -0.000571
   15  C  3  Z   -0.000011   0.000017   0.000004  -0.000050   0.000183
   16  H  4  S    0.004444  -0.004503   0.000106  -0.000123  -0.000029
   17  H  5  S    0.004495  -0.004523   0.000096  -0.000106  -0.000039
   18  C  6  S   -0.000003  -0.000357  -0.000220  -0.003842   0.991836
   19  C  6  S    0.000002   0.000320  -0.000508  -0.008738   0.038192
   20  C  6  X    0.000040  -0.000069  -0.003350   0.002699  -0.000384
   21  C  6  Y    0.000040   0.000070  -0.003590  -0.002335   0.000390
   22  C  6  Z    0.000002   0.000026  -0.000015  -0.000246   0.000059
   23  C  7  S   -0.002071  -0.002760   0.740920   0.659636   0.003704
   24  C  7  S   -0.003741  -0.003445   0.027516   0.024605  -0.006180
   25  C  7  X    0.002315   0.002255   0.000220   0.000479   0.000640
   26  C  7  Y   -0.001350  -0.001077  -0.000181  -0.000165   0.004423
   27  C  7  Z    0.000024   0.000020   0.000040  -0.000006   0.000189
   28  H  8  S    0.000001  -0.000025   0.000011   0.000218  -0.006925
   29  H  9  S   -0.000002  -0.000050   0.000014   0.000222  -0.006933
   30  H 10  S   -0.004557  -0.004456  -0.000105  -0.000093  -0.000041
   31  H 11  S   -0.004509  -0.004442  -0.000123  -0.000110  -0.000027
   32  H 12  S    0.000270   0.000206  -0.005074  -0.004600   0.000101
   33  H 13  S    0.000259   0.000210  -0.005106  -0.004588   0.000101
   34  H 14  S   -0.000269   0.000216   0.004514  -0.005161   0.000103
   35  H 15  S   -0.000256   0.000208   0.004534  -0.005142   0.000100
   36  BR16  S    0.000000   0.000035   0.000000   0.000002  -0.000000
   37  BR16  S   -0.000001  -0.000114  -0.000000  -0.000008   0.000000
   38  BR16  X   -0.000055  -0.000082  -0.000002  -0.000009   0.000001
   39  BR16  Y   -0.000053   0.000084  -0.000001   0.000009  -0.000001
   40  BR16  Z    0.000000  -0.000004   0.000000  -0.000001  -0.000000
   41  BR16  S   -0.000005  -0.000667  -0.000004  -0.000072   0.000001
   42  BR16  X    0.000186   0.000280   0.000006   0.000030  -0.000002
   43  BR16  Y    0.000179  -0.000287   0.000002  -0.000031   0.000002
   44  BR16  Z   -0.000001   0.000015  -0.000000   0.000003   0.000000
   45  BR16 XX   -0.000039   0.000305   0.000000   0.000023  -0.000000
   46  BR16 YY    0.000043   0.000304   0.000002   0.000023  -0.000000
   47  BR16 ZZ    0.000002   0.000351   0.000002   0.000026  -0.000000
   48  BR16 XY    0.000001   0.000036   0.000000   0.000002  -0.000000
   49  BR16 XZ   -0.000001  -0.000002  -0.000000  -0.000000  -0.000000
   50  BR16 YZ   -0.000001   0.000002  -0.000000   0.000000   0.000000
   51  BR16  S   -0.000026  -0.003650  -0.000021  -0.000357   0.000004
   52  BR16  X   -0.001642  -0.002762  -0.000083  -0.000260   0.000007
   53  BR16  Y   -0.001578   0.002827  -0.000051   0.000272  -0.000007
   54  BR16  Z    0.000012  -0.000143   0.000001  -0.000023  -0.000001

                     11         12         13         14         15
                   -9.5571    -7.2559    -7.2357    -7.2348    -2.6427
                     A          A          A          A          A   
    1  C  1  S    0.000511  -0.000898   0.000487   0.000008   0.003002
    2  C  1  S   -0.002461   0.006044  -0.003053  -0.000057  -0.010262
    3  C  1  X    0.002916  -0.006301   0.003008   0.000067   0.011392
    4  C  1  Y   -0.001801   0.003458  -0.002385  -0.000104  -0.004093
    5  C  1  Z    0.000099  -0.000228   0.000075  -0.001351   0.000376
    6  C  2  S    0.000512  -0.000898  -0.000487   0.000008   0.003003
    7  C  2  S   -0.002461   0.006045   0.003052  -0.000061  -0.010266
    8  C  2  X    0.001757  -0.003363  -0.002338   0.000100   0.003923
    9  C  2  Y   -0.002943   0.006352   0.003043  -0.000074  -0.011454
   10  C  2  Z    0.000100  -0.000240  -0.000066  -0.001352   0.000431
   11  C  3  S    0.000045  -0.000072  -0.000023   0.000004   0.000091
   12  C  3  S   -0.000452   0.000850   0.000384  -0.000028  -0.001332
   13  C  3  X    0.000104  -0.000300  -0.000008   0.000011   0.000773
   14  C  3  Y   -0.000286   0.000505   0.000254  -0.000021  -0.000638
   15  C  3  Z   -0.000011   0.000022   0.000011   0.000306  -0.000032
   16  H  4  S   -0.000594   0.000346   0.001017   0.001226   0.001759
   17  H  5  S   -0.000529   0.000306   0.000825  -0.001139   0.001646
   18  C  6  S   -0.000004   0.000003   0.000000   0.000000  -0.000003
   19  C  6  S    0.000051  -0.000042  -0.000000   0.000006  -0.000050
   20  C  6  X   -0.000030   0.000050   0.000025   0.000003  -0.000051
   21  C  6  Y    0.000030  -0.000051   0.000025  -0.000002   0.000052
   22  C  6  Z    0.000003  -0.000001  -0.000000  -0.000038  -0.000005
   23  C  7  S    0.000045  -0.000072   0.000023   0.000003   0.000091
   24  C  7  S   -0.000452   0.000850  -0.000384  -0.000024  -0.001332
   25  C  7  X    0.000284  -0.000500   0.000254   0.000016   0.000625
   26  C  7  Y   -0.000109   0.000309  -0.000013  -0.000005  -0.000783
   27  C  7  Z   -0.000008   0.000015  -0.000011   0.000307  -0.000015
   28  H  8  S   -0.000003  -0.000002   0.000000   0.000002   0.000009
   29  H  9  S   -0.000005  -0.000001  -0.000000  -0.000008   0.000012
   30  H 10  S   -0.000538   0.000314  -0.000838  -0.001156   0.001659
   31  H 11  S   -0.000584   0.000337  -0.001002   0.001210   0.001747
   32  H 12  S    0.000061  -0.000071   0.000079  -0.000036  -0.000038
   33  H 13  S    0.000063  -0.000074   0.000074   0.000034  -0.000033
   34  H 14  S    0.000063  -0.000072  -0.000082  -0.000039  -0.000041
   35  H 15  S    0.000061  -0.000073  -0.000071   0.000031  -0.000030
   36  BR16  S    0.170424   0.002524  -0.000000   0.000002   0.000417
   37  BR16  S   -0.524632  -0.007809   0.000000  -0.000007  -0.001248
   38  BR16  X   -0.003976   0.292820  -0.297787   0.006407  -0.001454
   39  BR16  Y    0.004037  -0.297289  -0.293216  -0.009929   0.001477
   40  BR16  Z   -0.000149   0.011550   0.002402  -0.417845  -0.000057
   41  BR16  S    2.305695   0.033024  -0.000000   0.000040   0.006412
   42  BR16  X    0.009954  -0.746886   0.759935  -0.016352   0.003754
   43  BR16  Y   -0.010106   0.758287   0.748271   0.025340  -0.003811
   44  BR16  Z    0.000371  -0.029458  -0.006129   1.066375   0.000146
   45  BR16 XX   -0.550466  -0.009154   0.004707  -0.000106  -0.234132
   46  BR16 YY   -0.550397  -0.009299  -0.004706  -0.000163  -0.257003
   47  BR16 ZZ   -0.552875  -0.004324  -0.000001   0.000237   0.486689
   48  BR16 XY   -0.002627   0.005528  -0.000083   0.000145   0.870848
   49  BR16 XZ    0.000104  -0.000215   0.000080   0.003744  -0.033764
   50  BR16 YZ   -0.000108   0.000219   0.000123  -0.003800   0.033997
   51  BR16  S    0.031322  -0.006417   0.000000   0.000027   0.005077
   52  BR16  X    0.002963  -0.037164   0.032646  -0.000653   0.005784
   53  BR16  Y   -0.003008   0.037730   0.032144   0.001030  -0.005871
   54  BR16  Z    0.000131  -0.001503  -0.000261   0.044359   0.000283

                     16         17         18         19         20
                   -2.6363    -2.6351    -2.6149    -2.6149    -1.3541
                     A          A          A          A          A   
    1  C  1  S   -0.002809   0.000041  -0.000029   0.000594  -0.135793
    2  C  1  S    0.012164  -0.000153   0.000145  -0.002405   0.368875
    3  C  1  X   -0.010526   0.000239  -0.000112   0.001362  -0.074176
    4  C  1  Y    0.006227  -0.000211   0.000160  -0.002844  -0.029661
    5  C  1  Z   -0.000370  -0.004207   0.001704   0.000106  -0.000902
    6  C  2  S    0.002808   0.000033   0.000020   0.000594  -0.135815
    7  C  2  S   -0.012161  -0.000122  -0.000113  -0.002404   0.368935
    8  C  2  X    0.006068   0.000168   0.000103   0.002824   0.030767
    9  C  2  Y   -0.010615  -0.000242  -0.000103  -0.001404   0.073678
   10  C  2  Z    0.000381  -0.004208  -0.001705   0.000060  -0.001937
   11  C  3  S    0.000049   0.000006   0.000002   0.000029  -0.056516
   12  C  3  S   -0.001037  -0.000056  -0.000022  -0.000332   0.144126
   13  C  3  X    0.000334   0.000021   0.000011  -0.000052  -0.000363
   14  C  3  Y   -0.000608  -0.000037  -0.000013  -0.000300   0.037478
   15  C  3  Z   -0.000027   0.000506   0.000229  -0.000010  -0.000935
   16  H  4  S    0.000482   0.000622   0.001238   0.000343   0.064913
   17  H  5  S    0.000569  -0.000496  -0.001080   0.000475   0.064339
   18  C  6  S    0.000000   0.000002  -0.000000   0.000006  -0.042078
   19  C  6  S    0.000000   0.000005  -0.000001   0.000052   0.104129
   20  C  6  X    0.000011   0.000006  -0.000003   0.000012  -0.021491
   21  C  6  Y    0.000011  -0.000006  -0.000003  -0.000012   0.021824
   22  C  6  Z   -0.000000  -0.000026  -0.000000   0.000006   0.001644
   23  C  7  S   -0.000049   0.000005  -0.000002   0.000029  -0.056504
   24  C  7  S    0.001038  -0.000049   0.000025  -0.000332   0.144097
   25  C  7  X   -0.000603   0.000029  -0.000015   0.000301  -0.037459
   26  C  7  Y    0.000344  -0.000014   0.000005   0.000047   0.000912
   27  C  7  Z    0.000019   0.000506  -0.000229  -0.000013  -0.000775
   28  H  8  S   -0.000000   0.000008   0.000000  -0.000006   0.015230
   29  H  9  S    0.000000  -0.000015   0.000000  -0.000007   0.014988
   30  H 10  S   -0.000564  -0.000510   0.001089   0.000491   0.064439
   31  H 11  S   -0.000489   0.000608  -0.001227   0.000327   0.064771
   32  H 12  S   -0.000018  -0.000015   0.000059  -0.000012   0.021766
   33  H 13  S   -0.000015   0.000014  -0.000052  -0.000018   0.022125
   34  H 14  S    0.000019  -0.000018  -0.000061  -0.000012   0.021895
   35  H 15  S    0.000014   0.000010   0.000050  -0.000017   0.022002
   36  BR16  S    0.000000  -0.000002   0.000000  -0.000004  -0.014693
   37  BR16  S   -0.000000   0.000006  -0.000001   0.000022   0.045948
   38  BR16  X    0.001401   0.000038  -0.000003   0.000039   0.011373
   39  BR16  Y    0.001379  -0.000057  -0.000002  -0.000040  -0.011545
   40  BR16  Z   -0.000013  -0.002138   0.000000  -0.000000   0.000514
   41  BR16  S    0.000000  -0.000017   0.000001   0.000090  -0.222239
   42  BR16  X   -0.003695  -0.000103   0.000008  -0.000137  -0.033945
   43  BR16  Y   -0.003638   0.000155   0.000005   0.000139   0.034459
   44  BR16  Z    0.000033   0.005723  -0.000000  -0.000001  -0.001534
   45  BR16 XX    0.865436   0.018074  -0.015408  -0.442450   0.044966
   46  BR16 YY   -0.865135   0.029786   0.031800  -0.428688   0.044658
   47  BR16 ZZ   -0.000301  -0.047849  -0.016392   0.871056   0.058660
   48  BR16 XY   -0.015323  -0.028014   0.009860  -0.489867   0.011900
   49  BR16 XZ    0.015076  -0.700713   0.712407  -0.006139  -0.000645
   50  BR16 YZ    0.023731   0.711172   0.700957   0.033191   0.000676
   51  BR16  S   -0.000001   0.000081  -0.000013   0.001369   0.346808
   52  BR16  X   -0.002574   0.000066  -0.000024   0.001216   0.076076
   53  BR16  Y   -0.002534  -0.000057  -0.000001  -0.001234  -0.077227
   54  BR16  Z    0.000019   0.000298  -0.000000   0.000052   0.003380

                     21         22         23         24         25
                   -1.2222    -1.1520    -1.0550    -0.9861    -0.9161
                     A          A          A          A          A   
    1  C  1  S   -0.017223  -0.105638   0.083563  -0.099631   0.045316
    2  C  1  S    0.050823   0.321269  -0.265562   0.334703  -0.159691
    3  C  1  X   -0.106002   0.092956  -0.061799  -0.006736   0.161670
    4  C  1  Y    0.055289   0.041824   0.070736   0.151835   0.072554
    5  C  1  Z   -0.001659  -0.000443  -0.006892  -0.003505  -0.006592
    6  C  2  S   -0.017191   0.105634   0.083535   0.099600   0.045408
    7  C  2  S    0.050733  -0.321253  -0.265468  -0.334603  -0.160016
    8  C  2  X   -0.053662   0.043298  -0.069850   0.151707  -0.074993
    9  C  2  Y    0.106858   0.092419   0.062820  -0.009087  -0.160607
   10  C  2  Z   -0.001724   0.000734  -0.006547   0.000742  -0.007229
   11  C  3  S    0.108416   0.122151   0.002551  -0.101860  -0.086297
   12  C  3  S   -0.295320  -0.347164  -0.008140   0.319531   0.278711
   13  C  3  X   -0.064836   0.039313   0.116773   0.047843  -0.146527
   14  C  3  Y   -0.014244  -0.016764  -0.059918  -0.098277  -0.112659
   15  C  3  Z    0.002532   0.000929  -0.004057  -0.000612   0.007150
   16  H  4  S    0.015232  -0.102069  -0.056379  -0.144131   0.013092
   17  H  5  S    0.014947  -0.098644  -0.061860  -0.140590  -0.001158
   18  C  6  S    0.141223  -0.000045  -0.122606  -0.000036   0.103210
   19  C  6  S   -0.375631   0.000120   0.358892   0.000115  -0.327918
   20  C  6  X    0.043406   0.069526   0.024442  -0.118306  -0.059245
   21  C  6  Y   -0.044090   0.068465  -0.024834  -0.116458   0.060206
   22  C  6  Z   -0.004362   0.000187  -0.000187  -0.000972   0.009328
   23  C  7  S    0.108414  -0.122156   0.002584   0.101872  -0.086315
   24  C  7  S   -0.295317   0.347186  -0.008242  -0.319567   0.278772
   25  C  7  X    0.015228  -0.016157   0.058137  -0.097532   0.114853
   26  C  7  Y    0.064671   0.039420  -0.117702   0.049410   0.144646
   27  C  7  Z    0.001901  -0.000228  -0.003807  -0.001814   0.008770
   28  H  8  S   -0.074353  -0.000145   0.110690   0.000769  -0.138325
   29  H  9  S   -0.074574   0.000202   0.112327  -0.000686  -0.134593
   30  H 10  S    0.015064   0.099109  -0.061761   0.140051   0.000402
   31  H 11  S    0.015173   0.101553  -0.056523   0.144733   0.011768
   32  H 12  S   -0.059820   0.089521  -0.001714  -0.118292   0.153853
   33  H 13  S   -0.060512   0.088883  -0.002936  -0.118623   0.153417
   34  H 14  S   -0.060076  -0.089764  -0.001750   0.118701   0.153526
   35  H 15  S   -0.060243  -0.088682  -0.002855   0.118133   0.153773
   36  BR16  S   -0.015301  -0.000002  -0.024664   0.000004  -0.013161
   37  BR16  S    0.048321   0.000007   0.079031  -0.000013   0.042731
   38  BR16  X    0.007462   0.004816  -0.001096   0.012586  -0.011515
   39  BR16  Y   -0.007574   0.004742   0.001109   0.012392   0.011691
   40  BR16  Z    0.000355  -0.000017  -0.000220  -0.000103  -0.001078
   41  BR16  S   -0.229852  -0.000032  -0.366582   0.000060  -0.193784
   42  BR16  X   -0.022320  -0.014448   0.003305  -0.037858   0.034612
   43  BR16  Y    0.022653  -0.014226  -0.003342  -0.037274  -0.035140
   44  BR16  Z   -0.001061   0.000051   0.000663   0.000310   0.003242
   45  BR16 XX    0.049648  -0.006359   0.085153  -0.010817   0.047587
   46  BR16 YY    0.049516   0.006372   0.085217   0.010785   0.047776
   47  BR16 ZZ    0.056116   0.000008   0.082077  -0.000009   0.040557
   48  BR16 XY    0.005227   0.000112  -0.002592   0.000189  -0.007272
   49  BR16 XZ   -0.000320  -0.000124   0.000221  -0.000218   0.000512
   50  BR16 YZ    0.000341  -0.000148  -0.000228  -0.000319  -0.000547
   51  BR16  S    0.393786   0.000058   0.707815  -0.000123   0.411194
   52  BR16  X    0.055820   0.037109  -0.000465   0.106711  -0.091072
   53  BR16  Y   -0.056653   0.036538   0.000437   0.105068   0.092464
   54  BR16  Z    0.002585  -0.000137  -0.001509  -0.000881  -0.009184

                     26         27         28         29         30
[...]
                   Y  0.00028242  0.00023692 -0.00027691  0.00002446 -0.00005735
                   Z  0.00013032 -0.00004994  0.00014199  0.00031112 -0.00006590
               TOTAL  0.00034101  0.00024779  0.00038271  0.00041318  0.00011865

                           36          37          38          39          40
       FREQUENCY:      1776.38     1782.21     1799.81     3520.78     3548.64  
        SYMMETRY:         A           A           A           A           A   
    REDUCED MASS:      1.13085     1.12955     1.13616     1.07303     1.06418
    IR INTENSITY:      0.43149     0.00564     0.40054     2.19650     0.07813

  1   C            X  0.01927799 -0.00960251 -0.00730212  0.00476404 -0.00363610
                   Y  0.06076107  0.00003944 -0.01856546 -0.05435360 -0.04171865
                   Z -0.01022627 -0.00130111  0.00283164 -0.01801861 -0.01145810
  2   C            X -0.06307419 -0.00124483  0.01902408 -0.04398875  0.05159999
                   Y -0.01941765 -0.00984587  0.00770584  0.00629041  0.00218867
                   Z -0.00854738  0.00137552  0.00236191  0.01546598 -0.01551534
  3   C            X  0.01239194 -0.04382977  0.03889801  0.00063724 -0.00109336
                   Y  0.00896432 -0.04216206  0.03642131 -0.00209809 -0.00309474
                   Z -0.00406944  0.02617950 -0.02316805  0.00039795  0.00092825
  4   H            X  0.39205931  0.04569803 -0.11602378  0.10452090 -0.14376431
                   Y  0.03531175  0.02019336 -0.00167692  0.02185581 -0.03416743
                   Z -0.24149451 -0.02310514  0.06957167  0.20956321 -0.29425253
  5   H            X  0.29019229  0.03701896 -0.08953888  0.37749610 -0.45940009
                   Y  0.07387658 -0.01503923 -0.00295105 -0.01775545  0.01291053
                   Z  0.31808828  0.03909016 -0.09942654 -0.40932096  0.49110241
  6   C            X -0.01818068  0.01814537 -0.03449147  0.00124187  0.00058552
                   Y  0.01752999  0.01821578  0.03447082  0.00110514 -0.00073190
                   Z  0.01436626 -0.00004028  0.02018545  0.00000996 -0.00022979
  7   C            X -0.00753854 -0.04325226 -0.03643896 -0.00150210  0.00320990
                   Y -0.01154507 -0.04394543 -0.03723119  0.00061966  0.00083903
                   Z -0.00356202 -0.02758820 -0.02379356 -0.00043025  0.00083798
  8   H            X  0.13521814 -0.02947317  0.20174290 -0.00091641 -0.00015316
                   Y -0.13553208 -0.02976163 -0.20408435 -0.00081058  0.00021947
                   Z  0.03360978 -0.00028541  0.04938341  0.00057981  0.00724977
  9   H            X  0.04555236 -0.01606047  0.05451782 -0.00460620 -0.00695179
                   Y -0.04308003 -0.01530779 -0.05333953 -0.00328062  0.00758987
                   Z -0.17972709 -0.00006096 -0.26530042 -0.00061782 -0.00625985
 10   H            X -0.07613754 -0.01640725  0.00328996 -0.00960940 -0.00119099
                   Y -0.26299553  0.03057108  0.08075088  0.49045350  0.38921622
                   Z  0.31538507 -0.03456501 -0.09839109  0.48983860  0.38320630
 11   H            X -0.04264941  0.02244322  0.00549171  0.02839775  0.02769096
                   Y -0.38584862  0.03805523  0.11378337  0.11447746  0.10341268
                   Z -0.21844658  0.01720892  0.06282234 -0.25622303 -0.23690730
 12   H            X  0.00070137  0.17241048  0.14046441  0.00120796 -0.03752344
                   Y  0.04030223  0.06635538  0.06968631 -0.00436940 -0.01933655
                   Z  0.05982636  0.42403939  0.36420772  0.00031090  0.02116192
 13   H            X  0.05505535  0.37966662  0.32256581 -0.00602932 -0.01052484
                   Y  0.04101489  0.26629639  0.21635148  0.00364914  0.00419218
                   Z -0.01584107 -0.10394877 -0.08778044 -0.01683975 -0.03646659
 14   H            X -0.04099037  0.06917190 -0.07512365 -0.00083693  0.02078644
                   Y -0.00594925  0.17710254 -0.14808198  0.00801387  0.03697666
                   Z  0.06959906 -0.41243137  0.36548734  0.00367510  0.02216957
 15   H            X -0.04909354  0.26503439 -0.22395809  0.00232333 -0.00455516
                   Y -0.06221228  0.36601411 -0.32125578 -0.00403262  0.01330662
                   Z -0.01992102  0.11044316 -0.09608693  0.01023555 -0.04193705
 16   BR           X -0.00037992  0.00026143  0.00023504 -0.00037539  0.00015729
                   Y  0.00044500  0.00026383 -0.00026401 -0.00040196 -0.00010308
                   Z  0.00028434 -0.00000023 -0.00009586 -0.00000691 -0.00007907

 TRANS. SAYVETZ    X -0.00000122 -0.00000008  0.00000015 -0.00000006  0.00000096
                   Y  0.00000073  0.00000010  0.00000011  0.00000019 -0.00000100
                   Z -0.00000079  0.00000006  0.00000017  0.00000038  0.00000095
               TOTAL  0.00000163  0.00000014  0.00000025  0.00000042  0.00000168

   ROT. SAYVETZ    X -0.00013240  0.00004307  0.00000988  0.00009922  0.00001223
                   Y  0.00004289  0.00000928  0.00005674  0.00009909 -0.00017576
                   Z -0.00014210 -0.00002407  0.00004664  0.00008552  0.00002352
               TOTAL  0.00019890  0.00005020  0.00007411  0.00016425  0.00017775

                           41          42          43          44          45
       FREQUENCY:      3607.21     3624.96     3627.82     3707.06     3714.19  
        SYMMETRY:         A           A           A           A           A   
    REDUCED MASS:      1.06519     1.06672     1.06901     1.10857     1.10563
    IR INTENSITY:      1.24602     0.23367     0.42397     0.19472     0.39132

  1   C            X -0.00048856  0.00206447  0.00072286 -0.00627627  0.00585258
                   Y -0.00018102 -0.00120151 -0.00561751 -0.00665920  0.00644032
                   Z -0.00021403  0.00067643  0.00034643  0.05674933 -0.06760561
  2   C            X  0.00019192 -0.00098323  0.00581142 -0.00910739 -0.00634202
                   Y  0.00046126  0.00202897 -0.00100818 -0.00739127 -0.00441554
                   Z -0.00024895 -0.00061774  0.00010097 -0.06823566 -0.05606276
  3   C            X  0.00279198 -0.02036698  0.02193825  0.00346511  0.00367044
                   Y  0.00785194 -0.03890069  0.04083185  0.00348779  0.00302222
                   Z -0.00177192  0.01980422 -0.02167900  0.00895249  0.00791692
  4   H            X  0.00136007  0.00128702 -0.01464058  0.29284162  0.23624013
                   Y -0.00060647  0.00262060 -0.00612834  0.05607517  0.04487670
                   Z  0.00197085  0.00281724 -0.03201230  0.59554530  0.47870240
  5   H            X -0.00222706  0.00254114 -0.03484231 -0.18320798 -0.18027644
                   Y  0.00095277 -0.00082375  0.00255231  0.01461276  0.00710701
                   Z  0.00353990 -0.00305734  0.03912218  0.20235227  0.19250531
  6   C            X  0.04586213  0.00226490 -0.00958975 -0.00062294 -0.00023672
                   Y -0.04630565  0.00307255  0.00946165 -0.00048823  0.00036959
                   Z -0.02243430  0.00039189  0.00879041 -0.00000365  0.00126289
  7   C            X -0.00798701 -0.04167584 -0.03784102  0.00298701 -0.00370798
                   Y -0.00274226 -0.02118168 -0.01974728  0.00274055 -0.00406789
                   Z -0.00198575 -0.02214354 -0.02099991 -0.00691729  0.00900350
  8   H            X -0.03545721  0.00424894  0.00761403  0.00079385  0.00147188
                   Y  0.03257659  0.00349948 -0.00718180  0.00054911 -0.00156141
                   Z  0.56097005 -0.00607539 -0.13697192 -0.00054015 -0.01586006
  9   H            X -0.48447366  0.00158944  0.08546719  0.00208075  0.00100507
                   Y  0.49255838 -0.00611349 -0.08672184  0.00086437 -0.00145793
                   Z -0.31846121  0.00249674  0.05641455  0.00036513  0.00067994
 10   H            X -0.00094297 -0.00096905 -0.00188523  0.00916675 -0.00504827
                   Y  0.00220520  0.00365388  0.03476033 -0.14471304  0.20855420
                   Z  0.00328743  0.00388759  0.03591938 -0.14839848  0.20625299
 11   H            X  0.00067479  0.00292770  0.00605473  0.04864996 -0.05754356
                   Y -0.00119033  0.00117291  0.01302287  0.22732958 -0.26772444
                   Z  0.00190023 -0.00319289 -0.03179722 -0.51074563  0.59849853
 12   H            X  0.08265728  0.38045013  0.33928251 -0.04439293  0.06161178
                   Y  0.04782590  0.23007318  0.20506939 -0.02516721  0.03662338
                   Z -0.05213115 -0.24310257 -0.21733415  0.02660006 -0.03779703
 13   H            X  0.01260447  0.08151889  0.07432884  0.00835182 -0.01107877
                   Y  0.00508489  0.00587779  0.00541665  0.00083010 -0.00028954
                   Z  0.08572121  0.48502503  0.44738345  0.05658158 -0.06876461
 14   H            X -0.04809411  0.21917279 -0.22585171 -0.03301140 -0.03365118
                   Y -0.07953680  0.34637819 -0.35710473 -0.05607090 -0.05399129
                   Z -0.05301048  0.23450286 -0.24235482 -0.03557560 -0.03524962
 15   H            X -0.00558954  0.00859241 -0.00912787  0.00107165  0.00015589
                   Y -0.01396425  0.08497798 -0.08948324  0.01289490  0.01139658
                   Z  0.08400241 -0.45081299  0.47973292 -0.07270212 -0.05901341
 16   BR           X -0.00001528 -0.00003152 -0.00000852  0.00014583 -0.00004844
                   Y  0.00001623 -0.00003018  0.00001252  0.00014999  0.00000521
                   Z -0.00000527  0.00000001  0.00000096 -0.00001157 -0.00005059

 TRANS. SAYVETZ    X -0.00000043  0.00000002  0.00000035  0.00000002  0.00000057
                   Y  0.00000050 -0.00000008 -0.00000052 -0.00000017 -0.00000022
                   Z  0.00000071  0.00000004  0.00000015  0.00000006  0.00000067
               TOTAL  0.00000097  0.00000009  0.00000064  0.00000018  0.00000090

   ROT. SAYVETZ    X -0.00002896  0.00003212 -0.00012073  0.00004448 -0.00006162
                   Y  0.00005805 -0.00000145  0.00009547  0.00004597 -0.00008562
                   Z  0.00002771 -0.00000766 -0.00000176 -0.00001101 -0.00003379
               TOTAL  0.00007054  0.00003306  0.00015393  0.00006491  0.00011077

                           46          47          48
       FREQUENCY:      3735.11     3749.69     3752.54  
        SYMMETRY:         A           A           A   
    REDUCED MASS:      1.11321     1.11329     1.11295
    IR INTENSITY:      0.91038     0.11565     0.12637

  1   C            X  0.00034812  0.00075712  0.00122898
                   Y -0.00068645  0.00028277  0.00153117
                   Z  0.00131146 -0.00915861 -0.00794501
  2   C            X  0.00072653  0.00012342 -0.00179631
                   Y -0.00031499  0.00057693 -0.00139454
                   Z  0.00146161  0.00815619 -0.00982241
  3   C            X  0.00429689  0.01592049 -0.01878448
                   Y  0.00676183  0.01946308 -0.02248171
                   Z  0.01383202  0.05407023 -0.06177280
  4   H            X -0.00806083 -0.03530260  0.04619643
                   Y -0.00128790 -0.00458624  0.00653406
                   Z -0.01551663 -0.06727529  0.08949654
  5   H            X  0.00272935  0.02909899 -0.03106921
                   Y -0.00054503 -0.00310592  0.00169382
                   Z -0.00295234 -0.03253001  0.03267925
  6   C            X -0.02525995 -0.00082948 -0.00485535
                   Y  0.02609828  0.00030398  0.00507060
                   Z -0.08216874 -0.00213932 -0.01970900
  7   C            X -0.00738905  0.02439141  0.02019485
                   Y -0.00446186  0.01863937  0.01575558
                   Z  0.01436802 -0.06295365 -0.05154053
  8   H            X -0.04627484  0.00237166 -0.01546495
                   Y  0.04247268  0.00529437  0.01392910
                   Z  0.73008765  0.02038858  0.19147899
  9   H            X  0.35061060  0.00693640  0.07476456
                   Y -0.35648315 -0.00964931 -0.07576860
                   Z  0.22719362  0.00544098  0.04951376
 10   H            X  0.00046439 -0.00251107 -0.00051945
                   Y -0.00218542  0.03165996  0.02419079
                   Z -0.00219719  0.03247849  0.02319731
 11   H            X  0.00115670 -0.00546843 -0.00569333
                   Y  0.00690178 -0.03817415 -0.03585954
                   Z -0.01448719  0.08005734  0.07614701
 12   H            X  0.09754520 -0.37185065 -0.30432334
                   Y  0.05788249 -0.22582225 -0.18493191
                   Z -0.06091723  0.23499046  0.19328301
 13   H            X -0.01463531  0.08459816  0.06973299
                   Y  0.00322832  0.00674603  0.00700008
                   Z -0.09855524  0.50349057  0.41271692
 14   H            X -0.05656065 -0.19682259  0.22497241
                   Y -0.09115259 -0.30985037  0.35392539
                   Z -0.06037345 -0.20744200  0.23811788
 15   H            X -0.00267846  0.00839189 -0.01138134
                   Y  0.01555336  0.08016469 -0.09215268
                   Z -0.09264078 -0.42645442  0.48781389
 16   BR           X  0.00000628 -0.00000047  0.00000714
                   Y -0.00000758 -0.00000270 -0.00000607
                   Z -0.00000081  0.00000047  0.00001256

 TRANS. SAYVETZ    X  0.00000011  0.00000004  0.00000012
                   Y -0.00000017  0.00000003 -0.00000012
                   Z  0.00000028  0.00000002 -0.00000002
               TOTAL  0.00000035  0.00000005  0.00000017

   ROT. SAYVETZ    X -0.00000767 -0.00001837 -0.00001728
                   Y  0.00000052  0.00001214  0.00002251
                   Z -0.00002611  0.00000885  0.00001038
               TOTAL  0.00002722  0.00002373  0.00003022

 REFERENCE ON SAYVETZ CONDITIONS - A. SAYVETZ, J.CHEM.PHYS., 7, 383-389(1939).

 NOTE - THE MODES J,K ARE ORTHONORMALIZED ACCORDING TO
 SUM ON I   M(I) * (X(I,J)*X(I,K) + Y(I,J)*Y(I,K) + Z(I,J)*Z(I,K)) = DELTA(J,K)

  MODE FREQ(CM**-1)  SYMMETRY  RED. MASS  IR INTENS.
     1     611.642    A        6.123375    6.708022
     2       5.970    A        2.552392    0.000371
     3       2.669    A        5.757970    0.000051
     4       0.190    A        7.994245    0.000002
     5       0.138    A        9.485058    0.000000
     6       0.124    A        8.913731    0.000000
     7       1.581    A        6.938935    0.000145
     8      69.011    A        1.674124    0.001614
     9     107.755    A        2.982219    0.018620
    10     209.099    A        6.521558    1.032454
    11     294.841    A        1.757455    0.072938
    12     624.569    A        1.941631    0.285945
    13     634.829    A        3.623732    0.815556
    14     785.936    A        2.725522    2.690525
    15     787.775    A        1.858795    1.881579
    16     882.514    A        1.723686    1.667769
    17     977.857    A        1.382876    0.002523
    18    1010.385    A        1.860793    0.052461
    19    1066.406    A        2.883767    0.865973
    20    1149.335    A        2.551457    4.065675
    21    1156.738    A        1.218984    0.075057
    22    1212.236    A        1.559715    0.429396
    23    1219.823    A        1.306305    0.846147
    24    1327.636    A        1.166944    0.459003
    25    1397.186    A        1.425443    0.299106
    26    1427.255    A        1.212511    4.243515
    27    1456.875    A        1.134411    1.037866
    28    1469.259    A        1.315635    1.246536
    29    1534.280    A        1.252393    0.055058
    30    1538.168    A        1.124027    1.225900
    31    1564.487    A        1.100800    0.000923
    32    1617.080    A        1.445046    0.139558
    33    1619.551    A        1.433422    0.932903
    34    1750.567    A        1.083659    0.053758
    35    1768.868    A        1.094417    0.083778
    36    1776.377    A        1.130851    0.431490
    37    1782.209    A        1.129546    0.005636
    38    1799.807    A        1.136155    0.400543
    39    3520.776    A        1.073029    2.196495
    40    3548.641    A        1.064180    0.078131
    41    3607.214    A        1.065190    1.246023
    42    3624.958    A        1.066717    0.233670
    43    3627.816    A        1.069013    0.423968
    44    3707.055    A        1.108569    0.194724
    45    3714.191    A        1.105628    0.391318
    46    3735.106    A        1.113212    0.910375
    47    3749.686    A        1.113289    0.115655
    48    3752.542    A        1.112950    0.126368

     -------------------------------
     THERMOCHEMISTRY AT T=  298.15 K
     -------------------------------

 USING IDEAL GAS, RIGID ROTOR, HARMONIC NORMAL MODE APPROXIMATIONS.
 P=  1.01325E+05 PASCAL.
 ALL FREQUENCIES ARE SCALED BY   1.00000
 THE MOMENTS OF INERTIA ARE (IN AMU*BOHR**2)
            287.78270          1833.44506          2044.85538
 THE ROTATIONAL SYMMETRY NUMBER IS  1.0
 THE ROTATIONAL CONSTANTS ARE (IN GHZ)
      6.26545     0.98344     0.88177
   1 IMAGINARY FREQUENCY VIBRATION(S) IS(ARE) EXCLUDED
     FROM THE FOLLOWING THERMOCHEMICAL ANALYSIS.
      8 -     48 VIBRATIONAL MODES ARE USED IN THERMOCHEMISTRY.
 THE HARMONIC ZERO POINT ENERGY IS (SCALED BY   1.000)
        0.165410 HARTREE/MOLECULE    36303.348658 CM**-1/MOLECULE 
      103.796587 KCAL/MOL              434.284918 KJ/MOL

               Q               LN Q
 ELEC.     1.00000E+00       0.000000
 TRANS.    7.14855E+07      18.085005
 ROT.      3.71825E+05      12.826180
 VIB.      2.21105E+01       3.096053
 TOT.      5.87700E+14      34.007238

              E         H         G         CV        CP        S
           KJ/MOL    KJ/MOL    KJ/MOL   J/MOL-K   J/MOL-K   J/MOL-K
 ELEC.      0.000     0.000     0.000     0.000     0.000     0.000
 TRANS.     3.718     6.197   -44.832    12.472    20.786   171.152
 ROT.       3.718     3.718   -31.795    12.472    12.472   119.114
 VIB.     442.784   442.784   426.610    59.041    59.041    54.247
 TOTAL    450.221   452.700   349.983    83.984    92.299   344.513
 VIB. THERMAL CORRECTION E(T)-E(0) = H(T)-H(0) =      8498.897 J/MOL

              E         H         G         CV        CP        S
         KCAL/MOL  KCAL/MOL  KCAL/MOL CAL/MOL-K CAL/MOL-K CAL/MOL-K
 ELEC.      0.000     0.000     0.000     0.000     0.000     0.000
 TRANS.     0.889     1.481   -10.715     2.981     4.968    40.906
 ROT.       0.889     0.889    -7.599     2.981     2.981    28.469
 VIB.     105.828   105.828   101.962    14.111    14.111    12.965
 TOTAL    107.605   108.198    83.648    20.073    22.060    82.341
 VIB. THERMAL CORRECTION E(T)-E(0) = H(T)-H(0) =      2031.285 CAL/MOL
 ......END OF NORMAL COORDINATE ANALYSIS......
 STEP CPU TIME =     0.01 TOTAL CPU TIME =        234.8 (      3.9 MIN)
 TOTAL WALL CLOCK TIME=        236.2 SECONDS, CPU UTILIZATION IS    99.41%
               993599  WORDS OF DYNAMIC MEMORY USED
 EXECUTION OF GAMESS TERMINATED NORMALLY Sun Nov 14 16:12:01 2021
 DDI: 263640 bytes (0.3 MB / 0 MWords) used by master data server.

 ----------------------------------------
 CPU timing information for all processes
 ========================================
 0: 231.704 + 3.98 = 234.803
 ----------------------------------------
 ddikick.x: exited gracefully.
----- accounting info -----
Files used on the master node chemcompute-node-0.novalocal were:
-rw-r--r--. 1 chemcomp chemcomp      1301 Nov 14 16:08 /scratch/306472/342483.F05
-rw-rw-r--. 1 chemcomp chemcomp   9540848 Nov 14 16:08 /scratch/306472/342483.F08
-rw-rw-r--. 1 chemcomp chemcomp 104857600 Nov 14 16:12 /scratch/306472/342483.F10
-rw-rw-r--. 1 chemcomp chemcomp   1141248 Nov 14 16:11 /scratch/306472/342483.F18
Sun Nov 14 16:12:04 UTC 2021
0.119u 0.109s 3:59.73 0.0%	0+0k 8+216io 0pf+0w
Finishing Up...
Looking for IR data...
Exception parsing IR in output file
could not convert string to float: 'PROPERTY'
Looking for Raman data...
Exception parsing Raman in output file
could not convert string to float: 'PROPERTY'
Looking for thermodynamics data...
Looking for UV-Vis data...
Exception parsing uvvis in output file
could not convert string to float: 'PROPERTY'
306472
