----- GAMESS execution script 'rungms' -----
This job is running on host chemcompute-node-0.novalocal
under operating system Linux at Mon Nov 15 18:39:28 UTC 2021
SLURM has assigned the following compute nodes to this run:
chemcompute-node-0
Available scratch disk space (Kbyte units) at beginning of the job is
Filesystem     1K-blocks     Used Available Use% Mounted on
/dev/sda1       62903276 16854484  46048792  27% /
GAMESS temporary binary files will be written to /scratch/307162
GAMESS supplementary output files will be written to /data/slurm/343201
Copying input file 343201.inp to your run's scratch directory...
The generated host list is
chemcompute-node-0.novalocal

 Distributed Data Interface kickoff program.
 Initiating 1 compute processes on 1 nodes to run the following command:
 /data/gamess-2019R1-ddi/gamess.00.x 343201 

          ******************************************************
          *         GAMESS VERSION = 30 JUN 2019 (R1)          *
          *             FROM IOWA STATE UNIVERSITY             *
          * M.W.SCHMIDT, K.K.BALDRIDGE, J.A.BOATZ, S.T.ELBERT, *
          *   M.S.GORDON, J.H.JENSEN, S.KOSEKI, N.MATSUNAGA,   *
          *          K.A.NGUYEN, S.J.SU, T.L.WINDUS,           *
          *       TOGETHER WITH M.DUPUIS, J.A.MONTGOMERY       *
          *         J.COMPUT.CHEM.  14, 1347-1363(1993)        *
          **************** 64 BIT LINUX VERSION ****************

  SINCE 1993, STUDENTS AND POSTDOCS WORKING AT IOWA STATE UNIVERSITY
  AND ALSO IN THEIR VARIOUS JOBS AFTER LEAVING ISU HAVE MADE IMPORTANT
  CONTRIBUTIONS TO THE CODE:
     IVANA ADAMOVIC, CHRISTINE AIKENS, YURI ALEXEEV, POOJA ARORA,
     ANDREY ASADCHEV, ROB BELL, PRADIPTA BANDYOPADHYAY, JONATHAN BENTZ,
     COLLEEN BERTONI, BRETT BODE, KURT BRORSEN, CALEB CARLIN, GALINA CHABAN,
     WEI CHEN, CHEOL HO CHOI, PAUL DAY, ALBERT DEFUSCO, NUWAN DESILVA,
     TIM DUDLEY, DMITRI FEDOROV, ALEX FINDLATER, GRAHAM FLETCHER, 
     MARK FREITAG, KURT GLAESEMANN, ANASTASIA GUNINA,
     DAN KEMP, GRANT MERRILL, NORIYUKI MINEZAWA, JONATHAN MULLIN,
     TAKESHI NAGATA, SEAN NEDD, HEATHER NETZLOFF, BOSILJKA NJEGIC, RYAN OLSON,
     MIKE PAK, BUU PHAM,
     SPENCER PRUITT, LUKE ROSKOP, JIM SHOEMAKER, LYUDMILA SLIPCHENKO,
     TONY SMITH, SAROM SOK LEANG, JIE SONG, TETSUYA TAKETSUGU, SIMON WEBB,
     PENG XU, SOOHAENG YOO, FEDERICO ZAHARIEV

  ADDITIONAL CODE HAS BEEN PROVIDED BY COLLABORATORS IN OTHER GROUPS:
     IOWA STATE UNIVERSITY:
          JOE IVANIC, AARON WEST, LAIMUTIS BYTAUTAS, KLAUS RUEDENBERG
     UNIVERSITY OF TOKYO: KIMIHIKO HIRAO, TAKAHITO NAKAJIMA,
          TAKAO TSUNEDA, MUNEAKI KAMIYA, SUSUMU YANAGISAWA,
          KIYOSHI YAGI, MAHITO CHIBA, SEIKEN TOKURA, NAOAKI KAWAKAMI
     UNIVERSITY OF AARHUS: FRANK JENSEN
     UNIVERSITY OF IOWA: VISVALDAS KAIRYS, HUI LI
     NATIONAL INST. OF STANDARDS AND TECHNOLOGY: WALT STEVENS, DAVID GARMER
     UNIVERSITY OF PISA: BENEDETTA MENNUCCI, JACOPO TOMASI
     UNIVERSITY OF MEMPHIS: HENRY KURTZ, PRAKASHAN KORAMBATH
     UNIVERSITY OF ALBERTA: TOBY ZENG, MARIUSZ KLOBUKOWSKI
     UNIVERSITY OF NEW ENGLAND: MARK SPACKMAN
     MIE UNIVERSITY: HIROAKI UMEDA
     NAT. INST. OF ADVANCED INDUSTRIAL SCIENCE AND TECHNOLOGY: KAZUO KITAURA
     MICHIGAN STATE UNIVERSITY:
          KAROL KOWALSKI, MARTA WLOCH, JEFFREY GOUR, JESSE LUTZ,
          WEI LI, JUN SHEN, J. EMILIANO DEUSTUA, PIOTR PIECUCH
     UNIVERSITY OF MINNESOTA:
          YINAN SHU
     UNIVERSITY OF SILESIA: MONIKA MUSIAL, STANISLAW KUCHARSKI
     FACULTES UNIVERSITAIRES NOTRE-DAME DE LA PAIX:
          OLIVIER QUINET, BENOIT CHAMPAGNE
     UNIVERSITY OF CALIFORNIA - SANTA BARBARA: BERNARD KIRTMAN
     INSTITUTE FOR MOLECULAR SCIENCE:
          KAZUYA ISHIMURA, MICHIO KATOUDA, AND SHIGERU NAGASE
     UNIVERSITY OF NOTRE DAME: ANNA POMOGAEVA, DAN CHIPMAN
     KYUSHU UNIVERSITY:
          HARUYUKI NAKANO,
          FENG LONG GU, JACEK KORCHOWIEC, MARCIN MAKOWSKI, AND YURIKO AOKI,
          HIROTOSHI MORI AND EISAKU MIYOSHI
     PENNSYLVANIA STATE UNIVERSITY:
          TZVETELIN IORDANOV, CHET SWALINA, JONATHAN SKONE,
          SHARON HAMMES-SCHIFFER
     WASEDA UNIVERSITY:
          MASATO KOBAYASHI, TOMOKO AKAMA, TSUGUKI TOUMA,
          TAKESHI YOSHIKAWA, YASUHIRO IKABATA, JUNJI SEINO,
          YUYA NAKAJIMA, HIROMI NAKAI
     NANJING UNIVERSITY: SHUHUA LI
     UNIVERSITY OF NEBRASKA:
          PEIFENG SU, DEJUN SI, NANDUN THELLAMUREGE, YALI WANG, HUI LI
     UNIVERSITY OF ZURICH: ROBERTO PEVERATI, KIM BALDRIDGE
     N. COPERNICUS UNIVERSITY AND JACKSON STATE UNIVERSITY:
          MARIA BARYSZ
     UNIVERSITY OF COPENHAGEN: Jimmy Kromann, CASPER STEINMANN
     TOKYO INSTITUTE OF TECHNOLOGY: HIROYA NAKATA
     NAGOYA UNIVERSITY: YOSHIO NISHIMOTO, STEPHAN IRLE
     MOSCOW STATE UNIVERSITY: VLADIMIR MIRONOV
     A.N.NESMEYANOV INSTITUTE OF ORGANOELEMENT COMPOUNDS OF RUSSIAN ACADEMY OF SCIENCES:
          IGOR S. GERASIMOV

 EXECUTION OF GAMESS BEGUN Mon Nov 15 18:39:28 2021

            ECHO OF THE FIRST FEW INPUT CARDS -
 INPUT CARD>!File created by the GAMESS Input Deck Generator Plugin for Avogadro            
 INPUT CARD> $BASIS GBASIS=STO NGAUSS=3 $END                                                
 INPUT CARD> $CONTRL SCFTYP=RHF RUNTYP=IRC $END                                             
 INPUT CARD> $STATPT HESS=READ ihrep=5 $END                                                 
 INPUT CARD> $irc npoint=100 saddle=.t. tsengy=.t. forwrd=.f. opttol=0.0005 stride=0.1 $end 
 INPUT CARD>                                                                                
 INPUT CARD> $DATA                                                                          
 INPUT CARD>Title                                                                           
 INPUT CARD>C1                                                                              
 INPUT CARD>C     6.0    -0.95369440     1.79177070     0.41096494                          
 INPUT CARD>C     6.0     0.28477564     1.05902576    -0.16798571                          
 INPUT CARD>C     6.0    -2.17809105     1.16498637    -0.30694196                          
 INPUT CARD>H     1.0    -0.89105761     2.86453629     0.25018969                          
 INPUT CARD>H     1.0    -1.01743710     1.61524785     1.48073447                          
 INPUT CARD>C     6.0    -1.68816233    -0.22106060    -0.74991232                          
 INPUT CARD>H     1.0    -2.45061207     1.75043023    -1.18495178                          
 INPUT CARD>H     1.0    -3.04748869     1.11195970     0.34343338                          
 INPUT CARD>C     6.0    -0.28485692    -0.25141639    -0.72204274                          
 INPUT CARD>H     1.0     1.07388914     0.90339738     0.56352365                          
 INPUT CARD>H     1.0     0.70753247     1.60423481    -1.01204288                          
 INPUT CARD>H     1.0    -2.24540544    -0.76681060    -1.49746132                          
 INPUT CARD>H     1.0     0.32125986    -0.91119206    -1.33856201                          
 INPUT CARD>B     5.0    -1.22666657    -1.27539170     0.55621803                          
 INPUT CARD>H     1.0    -0.03449197    -1.30740488     0.65815514                          
 INPUT CARD>H     1.0    -1.62810814    -0.78854537     1.52000105                          
 INPUT CARD>H     1.0    -1.56436431    -2.32886338     0.23233138                          
 INPUT CARD> $END                                                                           
 INPUT CARD>                                                                                
 INPUT CARD> $HESS                                                                          
 INPUT CARD>ENERGY IS     -217.7512571618 E(NUC) IS      238.8695593914                     
 INPUT CARD> 1  1 6.26105578E-01 1.44178385E-02-1.31593476E-02-2.24975659E-01 7.36619229E-02
 INPUT CARD> 1  2 5.76160851E-02-2.23264771E-01-6.26893100E-02-6.94845799E-02-7.20943444E-02
 INPUT CARD> 1  3-2.13792070E-02 4.17715750E-03-7.10569431E-02-4.38825241E-03 2.41710280E-02
 INPUT CARD> 1  4 5.51095682E-03-9.03665031E-03 1.56605214E-03-4.17043848E-03-6.15139123E-03
 INPUT CARD> 1  5-3.65598095E-04-1.78185687E-02-1.37686550E-02-2.12992317E-02 1.39928617E-02
 INPUT CARD> 1  6 6.73490361E-03-1.19676535E-04-1.54374681E-02 1.24183897E-02 1.65282659E-02
 INPUT CARD> 1  7-8.10916087E-03 9.69341582E-03 1.85058447E-03-2.65919708E-03 2.48856074E-03
 INPUT CARD> 1  8 8.52987516E-04-3.36487066E-03-2.60296844E-03-1.18906500E-03-2.29139646E-03
 INPUT CARD> 1  9 3.40770567E-05-4.87997961E-04-1.22345083E-04 1.08979311E-03-1.29412442E-03
 INPUT CARD> 1 10 2.02277963E-05-4.16006695E-04 2.77144177E-04-2.64815366E-04-1.06403610E-04
 INPUT CARD> 1 11 3.60116975E-04                                                            
 INPUT CARD> 2  1 1.44178385E-02 8.79215885E-01-2.97839258E-02 6.44801676E-02-1.52605317E-01
 INPUT CARD> 2  2-2.81570569E-02-5.37883657E-02-1.41214275E-01-2.84267113E-02-2.32973210E-02
 INPUT CARD> 2  3-4.52992625E-01 6.24259728E-02-4.06094563E-03-9.19702996E-02 6.62244912E-02
 INPUT CARD> 2  4-2.60807790E-02-2.55641165E-02-2.60322788E-02 1.75024826E-02 1.15495314E-02
 INPUT CARD> 2  5 8.42197596E-03 1.13403469E-03 4.84494189E-04-1.20488250E-03 2.48993649E-02
 INPUT CARD> 2  6-3.08190585E-02-2.45943802E-02 1.17592836E-03-2.02640397E-04-2.84116507E-03
 INPUT CARD> 2  7-1.61804353E-02 1.29743311E-02 6.16795818E-03 4.15427525E-03-4.32524750E-03
 INPUT CARD> 2  8-4.73761373E-04-4.05848174E-03-3.05938540E-03-8.34588749E-04-3.44754145E-04
 INPUT CARD> 2  9-9.72542361E-04-4.54380323E-04-7.12574246E-05 3.95333157E-04 1.73336926E-04
    1000000 WORDS OF MEMORY AVAILABLE

     BASIS OPTIONS
     -------------
     GBASIS=STO          IGAUSS=       3      POLAR=NONE    
     NDFUNC=       0     NFFUNC=       0     DIFFSP=       F
     NPFUNC=       0      DIFFS=       F     BASNAM=        


     RUN TITLE
     ---------
 Title                                                                           

 THE POINT GROUP OF THE MOLECULE IS C1      
 THE ORDER OF THE PRINCIPAL AXIS IS     0

 ATOM      ATOMIC                      COORDINATES (BOHR)
           CHARGE         X                   Y                   Z
 C           6.0    -1.8022210920        3.3859556558        0.7766111272
 C           6.0     0.5381479276        2.0012685003       -0.3174469618
 C           6.0    -4.1159952608        2.2015050187       -0.5800361985
 H           1.0    -1.6838547222        5.4131886700        0.4727899591
 H           1.0    -1.9226773287        3.0523758388        2.7981824089
 C           6.0    -3.1901642265       -0.4177439607       -1.4171287996
 H           1.0    -4.6309853145        3.3078334953       -2.2392341729
 H           1.0    -5.7589185748        2.1012991424        0.6489949832
 C           6.0    -0.5383015245       -0.4751080859       -1.3644629300
 H           1.0     2.0293562158        1.7071735062        1.0649052861
 H           1.0     1.3370424957        3.0315642109       -1.9124837310
 H           1.0    -4.2432010129       -1.4490619185       -2.8297915720
 H           1.0     0.6070931063       -1.7219033156       -2.5295154165
 B           5.0    -2.3180636956       -2.4101408400        1.0510996661
 H           1.0    -0.0651803721       -2.4706369782        1.2437328720
 H           1.0    -3.0766782630       -1.4901346782        2.8723854855
 H           1.0    -2.9562198909       -4.4009136510        0.4390426465

          INTERNUCLEAR DISTANCES (ANGS.)
          ------------------------------

                1 C          2 C          3 C          4 H          5 H     

   1 C       0.0000000    1.5510987 *  1.5515786 *  1.0865533 *  1.0861079 *
   2 C       1.5510987 *  0.0000000    2.4690583 *  2.1948400 *  2.1733429 *
   3 C       1.5515786 *  2.4690583 *  0.0000000    2.2034792 *  2.1784490 *
   4 H       1.0865533 *  2.1948400 *  2.2034792 *  0.0000000    1.7581052 *
   5 H       1.0861079 *  2.1733429 *  2.1784490 *  1.7581052 *  0.0000000  
   6 C       2.4369179 *  2.4227554 *  1.5353759 *  3.3401330    2.9660894 *
   7 H       2.1884747 *  2.9991009 *  1.0899144 *  2.3943837 *  3.0295458  
   8 H       2.2024255 *  3.3716965    1.0870383 *  2.7803622 *  2.3807272 *
   9 C       2.4301571 *  1.5325531 *  2.4005918 *  3.3199211    2.9788146 *
  10 H       2.2189133 *  1.0872103 *  3.3766128    2.7937895 *  2.3919975 *
  11 H       2.1954033 *  1.0901416 *  3.0028203    2.3952205 *  3.0314320  
  12 H       3.4433917    3.3916073    2.2701778 *  4.2514965    4.0064646  
  13 H       3.4629988    2.2920162 *  3.4090338    4.2719984    4.0154005  
  14 B       3.0827094    2.8737490 *  2.7578431 *  4.1647678    3.0420889  
  15 H       3.2420557    2.5267439 *  3.4116195    4.2784616    3.1913503  
  16 H       2.8883951 *  3.1499115    2.7306571 *  3.9370890    2.4804602 *
  17 H       4.1694667    3.8803821    3.5881001    5.2368942    4.1729669  

                6 C          7 H          8 H          9 C         10 H     

   1 C       2.4369179 *  2.1884747 *  2.2024255 *  2.4301571 *  2.2189133 *
   2 C       2.4227554 *  2.9991009 *  3.3716965    1.5325531 *  1.0872103 *
   3 C       1.5353759 *  1.0899144 *  1.0870383 *  2.4005918 *  3.3766128  
   4 H       3.3401330    2.3943837 *  2.7803622 *  3.3199211    2.7937895 *
   5 H       2.9660894 *  3.0295458    2.3807272 *  2.9788146 *  2.3919975 *
   6 C       0.0000000    2.1580929 *  2.1954763 *  1.4039103 *  3.2585960  
   7 H       2.1580929 *  0.0000000    1.7606441 *  2.9853258 *  4.0245173  
   8 H       2.1954763 *  1.7606441 *  0.0000000    3.2597804    4.1325166  
   9 C       1.4039103 *  2.9853258 *  3.2597804    0.0000000    2.1982872 *
  10 H       3.2585960    4.0245173    4.1325166    2.1982872 *  0.0000000  
  11 H       3.0232051    3.1662513    4.0224165    2.1242359 *  1.7628954 *
  12 H       1.0803668 *  2.5448523 *  2.7499107 *  2.1704045 *  4.2491141  
  13 H       2.2046695 *  3.8459203    4.2744261    1.0875557 *  2.7344315 *
  14 B       1.7408529 *  3.6993666    3.0100029    1.8893071 *  3.1685536  
  15 H       2.4284611 *  4.3110364    3.8769220    1.7557735 *  2.4748960 *
  16 H       2.3405453 *  3.7999578    2.6478052 *  2.6682563 *  3.3284093  
  17 H       2.3287252 *  4.4084876    3.7485017    2.6198769 *  4.1854007  

               11 H         12 H         13 H         14 B         15 H     

   1 C       2.1954033 *  3.4433917    3.4629988    3.0827094    3.2420557  
   2 C       1.0901416 *  3.3916073    2.2920162 *  2.8737490 *  2.5267439 *
   3 C       3.0028203    2.2701778 *  3.4090338    2.7578431 *  3.4116195  
   4 H       2.3952205 *  4.2514965    4.2719984    4.1647678    4.2784616  
   5 H       3.0314320    4.0064646    4.0154005    3.0420889    3.1913503  
   6 C       3.0232051    1.0803668 *  2.2046695 *  1.7408529 *  2.4284611 *
   7 H       3.1662513    2.5448523 *  3.8459203    3.6993666    4.3110364  
   8 H       4.0224165    2.7499107 *  4.2744261    3.0100029    3.8769220  
   9 C       2.1242359 *  2.1704045 *  1.0875557 *  1.8893071 *  1.7557735 *
  10 H       1.7628954 *  4.2491141    2.7344315 *  3.1685536    2.4748960 *
  11 H       0.0000000    3.8180269    2.5657735 *  3.8069433    3.4377038  
  12 H       3.8180269    0.0000000    2.5756292 *  2.3482084 *  3.1348146  
  13 H       2.5657735 *  2.5756292 *  0.0000000    2.4736429 *  2.0665003 *
  14 B       3.8069433    2.3482084 *  2.4736429 *  0.0000000    1.1969529 *
  15 H       3.4377038    3.1348146    2.0665003 *  1.1969529 *  0.0000000  
  16 H       4.1942652    3.0800337    3.4621468    1.1519776 *  1.8845705 *
  17 H       4.7094844    2.4281698 *  2.8342683 *  1.1527120 *  1.8881771 *

               16 H         17 H     

   1 C       2.8883951 *  4.1694667  
   2 C       3.1499115    3.8803821  
   3 C       2.7306571 *  3.5881001  
   4 H       3.9370890    5.2368942  
   5 H       2.4804602 *  4.1729669  
   6 C       2.3405453 *  2.3287252 *
   7 H       3.7999578    4.4084876  
   8 H       2.6478052 *  3.7485017  
   9 C       2.6682563 *  2.6198769 *
  10 H       3.3284093    4.1854007  
  11 H       4.1942652    4.7094844  
  12 H       3.0800337    2.4281698 *
  13 H       3.4621468    2.8342683 *
  14 B       1.1519776 *  1.1527120 *
  15 H       1.8845705 *  1.8881771 *
  16 H       0.0000000    2.0086652 *
  17 H       2.0086652 *  0.0000000  

  * ... LESS THAN  3.000


     ATOMIC BASIS SET
     ----------------
 THE CONTRACTED PRIMITIVE FUNCTIONS HAVE BEEN UNNORMALIZED
 THE CONTRACTED BASIS FUNCTIONS ARE NOW NORMALIZED TO UNITY

  SHELL TYPE  PRIMITIVE        EXPONENT          CONTRACTION COEFFICIENT(S)

 C         

      1   S       1            71.6168373    0.154328967295
      1   S       2            13.0450963    0.535328142282
      1   S       3             3.5305122    0.444634542185

      2   L       4             2.9412494   -0.099967229187    0.155916274999
      2   L       5             0.6834831    0.399512826089    0.607683718598
      2   L       6             0.2222899    0.700115468880    0.391957393099

 C         

      3   S       7            71.6168373    0.154328967295
      3   S       8            13.0450963    0.535328142282
      3   S       9             3.5305122    0.444634542185

      4   L      10             2.9412494   -0.099967229187    0.155916274999
      4   L      11             0.6834831    0.399512826089    0.607683718598
      4   L      12             0.2222899    0.700115468880    0.391957393099

 C         

      5   S      13            71.6168373    0.154328967295
      5   S      14            13.0450963    0.535328142282
      5   S      15             3.5305122    0.444634542185

      6   L      16             2.9412494   -0.099967229187    0.155916274999
      6   L      17             0.6834831    0.399512826089    0.607683718598
      6   L      18             0.2222899    0.700115468880    0.391957393099

 H         

      7   S      19             3.4252509    0.154328967295
      7   S      20             0.6239137    0.535328142282
      7   S      21             0.1688554    0.444634542185

 H         

      8   S      22             3.4252509    0.154328967295
      8   S      23             0.6239137    0.535328142282
      8   S      24             0.1688554    0.444634542185

 C         

      9   S      25            71.6168373    0.154328967295
      9   S      26            13.0450963    0.535328142282
      9   S      27             3.5305122    0.444634542185

     10   L      28             2.9412494   -0.099967229187    0.155916274999
     10   L      29             0.6834831    0.399512826089    0.607683718598
     10   L      30             0.2222899    0.700115468880    0.391957393099

 H         

     11   S      31             3.4252509    0.154328967295
     11   S      32             0.6239137    0.535328142282
     11   S      33             0.1688554    0.444634542185

 H         

     12   S      34             3.4252509    0.154328967295
     12   S      35             0.6239137    0.535328142282
     12   S      36             0.1688554    0.444634542185

 C         

     13   S      37            71.6168373    0.154328967295
     13   S      38            13.0450963    0.535328142282
     13   S      39             3.5305122    0.444634542185

     14   L      40             2.9412494   -0.099967229187    0.155916274999
     14   L      41             0.6834831    0.399512826089    0.607683718598
     14   L      42             0.2222899    0.700115468880    0.391957393099

 H         

     15   S      43             3.4252509    0.154328967295
     15   S      44             0.6239137    0.535328142282
     15   S      45             0.1688554    0.444634542185

 H         

     16   S      46             3.4252509    0.154328967295
     16   S      47             0.6239137    0.535328142282
     16   S      48             0.1688554    0.444634542185

 H         

     17   S      49             3.4252509    0.154328967295
     17   S      50             0.6239137    0.535328142282
     17   S      51             0.1688554    0.444634542185

 H         

     18   S      52             3.4252509    0.154328967295
     18   S      53             0.6239137    0.535328142282
     18   S      54             0.1688554    0.444634542185

 B         

     19   S      55            48.7911132    0.154328967295
     19   S      56             8.8873622    0.535328142282
     19   S      57             2.4052670    0.444634542185

     20   L      58             2.2369561   -0.099967229187    0.155916274999
     20   L      59             0.5198205    0.399512826089    0.607683718598
     20   L      60             0.1690618    0.700115468880    0.391957393099

 H         

     21   S      61             3.4252509    0.154328967295
     21   S      62             0.6239137    0.535328142282
     21   S      63             0.1688554    0.444634542185

 H         

     22   S      64             3.4252509    0.154328967295
     22   S      65             0.6239137    0.535328142282
     22   S      66             0.1688554    0.444634542185

 H         

     23   S      67             3.4252509    0.154328967295
     23   S      68             0.6239137    0.535328142282
     23   S      69             0.1688554    0.444634542185

 TOTAL NUMBER OF BASIS SET SHELLS             =   23
 NUMBER OF CARTESIAN GAUSSIAN BASIS FUNCTIONS =   41
 NUMBER OF ELECTRONS                          =   46
 CHARGE OF MOLECULE                           =    0
 SPIN MULTIPLICITY                            =    1
 NUMBER OF OCCUPIED ORBITALS (ALPHA)          =   23
 NUMBER OF OCCUPIED ORBITALS (BETA )          =   23
 TOTAL NUMBER OF ATOMS                        =   17
 THE NUCLEAR REPULSION ENERGY IS      238.8695593914

     $CONTRL OPTIONS
     ---------------
 SCFTYP=RHF          RUNTYP=IRC          EXETYP=RUN     
 MPLEVL=       0     CITYP =NONE         CCTYP =NONE         VBTYP =NONE    
 DFTTYP=NONE         TDDFT =NONE    
 MULT  =       1     ICHARG=       0     NZVAR =       0     COORD =UNIQUE  
 PP    =NONE         RELWFN=NONE         LOCAL =NONE         NUMGRD=       F
 ISPHER=      -1     NOSYM =       0     MAXIT =      30     UNITS =ANGS    
 PLTORB=       F     MOLPLT=       F     AIMPAC=       F     FRIEND=        
 NPRINT=       7     IREST =       0     GEOM  =INPUT   
 NORMF =       0     NORMP =       0     ITOL  =      20     ICUT  =       9
 INTTYP=BEST         GRDTYP=BEST         QMTTOL= 1.0E-06

     $SYSTEM OPTIONS
     ---------------
  REPLICATED MEMORY=     1000000 WORDS (ON EVERY NODE).
 DISTRIBUTED MEMDDI=           0 MILLION WORDS IN AGGREGATE,
 MEMDDI DISTRIBUTED OVER   1 PROCESSORS IS           0 WORDS/PROCESSOR.
 TOTAL MEMORY REQUESTED ON EACH PROCESSOR=     1000000 WORDS.
 TIMLIM=      525600.00 MINUTES, OR     365.0 DAYS.
 PARALL= F  BALTYP=  DLB     KDIAG=    0  COREFL= F
 MXSEQ2=     300 MXSEQ3=     150  mem10=         0

          ----------------
          PROPERTIES INPUT
          ----------------

     MOMENTS            FIELD           POTENTIAL          DENSITY
 IEMOM =       1   IEFLD =       0   IEPOT =       0   IEDEN =       0
 WHERE =COMASS     WHERE =NUCLEI     WHERE =NUCLEI     WHERE =NUCLEI  
 OUTPUT=BOTH       OUTPUT=BOTH       OUTPUT=BOTH       OUTPUT=BOTH    
 IEMINT=       0   IEFINT=       0                     IEDINT=       0
                                                       MORB  =       0
          EXTRAPOLATION IN EFFECT
          SOSCF IN EFFECT
 ORBITAL PRINTING OPTION: NPREO=     1    41     2     1

     -------------------------------
     INTEGRAL TRANSFORMATION OPTIONS
     -------------------------------
     NWORD  =            0
     CUTOFF = 1.0E-09     MPTRAN =       0
     DIRTRF =       F     AOINTS =DUP     

          ----------------------
          INTEGRAL INPUT OPTIONS
          ----------------------
 NOPK  =       1 NORDER=       0 SCHWRZ=       T

     ------------------------------------------
     THE POINT GROUP IS C1 , NAXIS= 0, ORDER= 1
     ------------------------------------------

     DIMENSIONS OF THE SYMMETRY SUBSPACES ARE
 A   =   41

 ..... DONE SETTING UP THE RUN .....
 STEP CPU TIME =     0.05 TOTAL CPU TIME =          0.0 (      0.0 MIN)
 TOTAL WALL CLOCK TIME=          0.1 SECONDS, CPU UTILIZATION IS    71.43%

          -----------------------------
          INTRINSIC REACTION COORDINATE
          -----------------------------
          PACE   =GS2     
          STRIDE = 0.10000 BOHR*SQRT(AMU)
          NPOINT =     100
          NEXTPT =       0
          STOTAL =  0.0000 BOHR*SQRT(AMU)
          SAB    =  0.0000 BOHR*SQRT(AMU)
          NPRT   =       0
          NPUN   =       0

          SADDLE =       T
          TSENGY =       T
          FORWRD =       F
          EVIB   = 0.00050 HARTREE
          FREQ   =     0.0 CM**-1

          STABLZ =       F
          ELBOW  =  175.00 DEGREES
          DELTA  = 0.02500 BOHR

          READQB =       F
          EB     =        0.0000000000 HARTREES
          GBNORM =        0.0000000000 HARTREES/SQRT(AMU)-BOHR

          GCUT   = 0.0000500 HARTREES/SQRT(AMU)-BOHR
          RCUT   = 0.0005000 BOHR
          ACUT   =    5.00 DEGREES
          MXOPT  =      20
          IHUPD  =       2

 ATOMIC MASSES USED (IN AMU) ARE
     C             12.0000
     C             12.0000
     C             12.0000
     H              1.0078
     H              1.0078
     C             12.0000
     H              1.0078
     H              1.0078
     C             12.0000
     H              1.0078
     H              1.0078
     H              1.0078
     H              1.0078
     B             11.0093
     H              1.0078
     H              1.0078
     H              1.0078

 JUMP AWAY FROM SADDLE POINT WILL BE FOUND FROM THE INPUT HESSIAN MATRIX

 COMPUTING WAVEFUNCTION AT TRANSITION STATE...

          ********************
          1 ELECTRON INTEGRALS
          ********************
 ...... END OF ONE-ELECTRON INTEGRALS ......
 STEP CPU TIME =     0.03 TOTAL CPU TIME =          0.1 (      0.0 MIN)
 TOTAL WALL CLOCK TIME=          0.1 SECONDS, CPU UTILIZATION IS    72.73%

          -------------
          GUESS OPTIONS
          -------------
          GUESS =HUCKEL            NORB  =       0          NORDER=       0
          MIX   =       F          PRTMO =       F          PUNMO =       F
          TOLZ  = 1.0E-08          TOLE  = 1.0E-05
          SYMDEN=       F          PURIFY=       F

 INITIAL GUESS ORBITALS GENERATED BY HUCKEL   ROUTINE.
 HUCKEL GUESS REQUIRES     30318 WORDS.

 SYMMETRIES FOR INITIAL GUESS ORBITALS FOLLOW.   BOTH SET(S).
    23 ORBITALS ARE OCCUPIED (    6 CORE ORBITALS).
     7=A        8=A        9=A       10=A       11=A       12=A       13=A   
    14=A       15=A       16=A       17=A       18=A       19=A       20=A   
    21=A       22=A       23=A       24=A       25=A       26=A       27=A   
    28=A       29=A       30=A       31=A       32=A       33=A   
 ...... END OF INITIAL ORBITAL SELECTION ......
 STEP CPU TIME =     0.02 TOTAL CPU TIME =          0.1 (      0.0 MIN)
 TOTAL WALL CLOCK TIME=          0.1 SECONDS, CPU UTILIZATION IS    76.92%

                    ----------------------
                    AO INTEGRAL TECHNOLOGY
                    ----------------------
     S,P,L SHELL ROTATED AXIS INTEGRALS, REPROGRAMMED BY
        KAZUYA ISHIMURA (IMS) AND JOSE SIERRA (SYNSTAR).
     S,P,D,L SHELL ROTATED AXIS INTEGRALS PROGRAMMED BY
        KAZUYA ISHIMURA (INSTITUTE FOR MOLECULAR SCIENCE).
     S,P,D,F,G SHELL TO TOTAL QUARTET ANGULAR MOMENTUM SUM 5,
        ERIC PROGRAM BY GRAHAM FLETCHER (ELORET AND NASA ADVANCED
        SUPERCOMPUTING DIVISION, AMES RESEARCH CENTER).
     S,P,D,F,G,L SHELL GENERAL RYS QUADRATURE PROGRAMMED BY
        MICHEL DUPUIS (PACIFIC NORTHWEST NATIONAL LABORATORY).

          --------------------
          2 ELECTRON INTEGRALS
          --------------------

 THE -PK- OPTION IS OFF, THE INTEGRALS ARE NOT IN SUPERMATRIX FORM.
 STORING   15000 INTEGRALS/RECORD ON DISK, USING 12 BYTES/INTEGRAL.
 TWO ELECTRON INTEGRAL EVALUATION REQUIRES   89632 WORDS OF MEMORY.
 SCHWARZ INEQUALITY OVERHEAD:       854 INTEGRALS, T=        0.01
 II,JST,KST,LST =  1  1  1  1 NREC =         1 INTLOC =    1
 II,JST,KST,LST =  2  1  1  1 NREC =         1 INTLOC =    2
 II,JST,KST,LST =  3  1  1  1 NREC =         1 INTLOC =   34
 II,JST,KST,LST =  4  1  1  1 NREC =         1 INTLOC =  140
 II,JST,KST,LST =  5  1  1  1 NREC =         1 INTLOC = 1357
 II,JST,KST,LST =  6  1  1  1 NREC =         1 INTLOC = 1927
 II,JST,KST,LST =  7  1  1  1 NREC =         1 INTLOC = 6785
 II,JST,KST,LST =  8  1  1  1 NREC =         1 INTLOC = 8818
 II,JST,KST,LST =  9  1  1  1 NREC =         1 INTLOC =11260
 II,JST,KST,LST = 10  1  1  1 NREC =         1 INTLOC =13725
 II,JST,KST,LST = 11  1  1  1 NREC =         3 INTLOC =  692
 II,JST,KST,LST = 12  1  1  1 NREC =         3 INTLOC = 6682
 II,JST,KST,LST = 13  1  1  1 NREC =         3 INTLOC =13499
 II,JST,KST,LST = 14  1  1  1 NREC =         4 INTLOC = 5337
 II,JST,KST,LST = 15  1  1  1 NREC =         7 INTLOC = 1297
 II,JST,KST,LST = 16  1  1  1 NREC =         7 INTLOC =14578
 II,JST,KST,LST = 17  1  1  1 NREC =         8 INTLOC =14254
 II,JST,KST,LST = 18  1  1  1 NREC =        10 INTLOC =  398
 II,JST,KST,LST = 19  1  1  1 NREC =        11 INTLOC = 3117
 II,JST,KST,LST = 20  1  1  1 NREC =        12 INTLOC = 4642
 II,JST,KST,LST = 21  1  1  1 NREC =        18 INTLOC =10289
 II,JST,KST,LST = 22  1  1  1 NREC =        20 INTLOC = 9454
 II,JST,KST,LST = 23  1  1  1 NREC =        22 INTLOC =10949
 SCHWARZ INEQUALITY TEST SKIPPED        3116 INTEGRAL BLOCKS.
 TOTAL NUMBER OF NONZERO TWO-ELECTRON INTEGRALS =              359743
         24 INTEGRAL RECORDS WERE STORED ON DISK FILE  8.
  ...... END OF TWO-ELECTRON INTEGRALS .....
 STEP CPU TIME =     0.13 TOTAL CPU TIME =          0.2 (      0.0 MIN)
 TOTAL WALL CLOCK TIME=          0.3 SECONDS, CPU UTILIZATION IS    88.46%

          --------------------------
                 RHF SCF CALCULATION
          --------------------------

     NUCLEAR ENERGY =       238.8695593914
     MAXIT =   30     NPUNCH=    2
     EXTRAP=T  DAMP=F  SHIFT=F  RSTRCT=F  DIIS=F  DEM=F  SOSCF=T
     DENSITY MATRIX CONV=  1.00E-05
     SOSCF WILL OPTIMIZE     414 ORBITAL ROTATIONS, SOGTOL=   0.250
     MEMORY REQUIRED FOR RHF ITERS=     43997 WORDS.

 ITER EX DEM     TOTAL ENERGY        E CHANGE  DENSITY CHANGE     ORB. GRAD
   1  0  0     -217.4404645287  -217.4404645287   0.347762033   0.000000000
          ---------------START SECOND ORDER SCF---------------
   2  1  0     -217.7382694098    -0.2978048811   0.088779569   0.026804127
   3  2  0     -217.7500565079    -0.0117870981   0.036687187   0.008066236
   4  3  0     -217.7512032479    -0.0011467400   0.004776171   0.001112391
   5  4  0     -217.7512492290    -0.0000459811   0.002450128   0.000373587
   6  5  0     -217.7512561443    -0.0000069153   0.000739465   0.000173436
   7  6  0     -217.7512571087    -0.0000009644   0.000123632   0.000036224
   8  7  0     -217.7512571566    -0.0000000479   0.000039389   0.000016053
   9  8  0     -217.7512571614    -0.0000000048   0.000010494   0.000002924
  10  9  0     -217.7512571617    -0.0000000004   0.000003312   0.000001020
  11 10  0     -217.7512571618    -0.0000000000   0.000000997   0.000000369

          -----------------
          DENSITY CONVERGED
          -----------------
     TIME TO FORM FOCK OPERATORS=       0.1 SECONDS (       0.0 SEC/ITER)
     TIME TO SOLVE SCF EQUATIONS=       0.0 SECONDS (       0.0 SEC/ITER)

 FINAL RHF ENERGY IS     -217.7512571618 AFTER  11 ITERATIONS

          ------------
          EIGENVECTORS
          ------------

                      1          2          3          4          5
                  -11.1370   -11.0834   -11.0585   -11.0578   -11.0534
                     A          A          A          A          A   
    1  C  1  S   -0.000446  -0.005882   0.960707   0.246885   0.008681
    2  C  1  S    0.000099  -0.005723   0.037356   0.003835   0.000237
    3  C  1  X    0.000083  -0.003334  -0.000733   0.003248   0.000032
    4  C  1  Y    0.000146   0.001875  -0.000381   0.001549   0.000212
    5  C  1  Z   -0.000000   0.001510  -0.000275   0.001898   0.000050
    6  C  2  S   -0.002010   0.991942   0.006298   0.003125   0.001180
    7  C  2  S   -0.005462   0.037296  -0.005234  -0.001204   0.000160
    8  C  2  X    0.001520   0.000011   0.003170   0.000897   0.000113
    9  C  2  Y    0.003452  -0.000321  -0.001987  -0.000482  -0.000064
   10  C  2  Z    0.001434  -0.000553  -0.001595  -0.000253  -0.000032
   11  C  3  S   -0.000446  -0.001430  -0.246074   0.960405   0.032988
   12  C  3  S    0.000080   0.000064  -0.014617   0.034842  -0.004334
   13  C  3  X   -0.000171  -0.000075  -0.003125  -0.000732  -0.001412
   14  C  3  Y   -0.000022   0.000056  -0.001675  -0.000601   0.003686
   15  C  3  Z    0.000012   0.000152  -0.001819  -0.000793   0.001198
   16  H  4  S   -0.000082   0.000153  -0.006805  -0.001616  -0.000147
   17  H  5  S    0.000040   0.000106  -0.006817  -0.001668  -0.000024
   18  C  6  S    0.003047  -0.001008  -0.000373  -0.033141   0.991373
   19  C  6  S   -0.005966   0.000142   0.001547  -0.006744   0.037225
   20  C  6  X   -0.004226   0.000020  -0.000470   0.001251   0.002600
   21  C  6  Y   -0.000328   0.000019   0.000917  -0.003728  -0.000404
   22  C  6  Z    0.000633   0.000029   0.000187  -0.001168   0.000366
   23  H  7  S   -0.000005   0.000028   0.001815  -0.006769  -0.000265
   24  H  8  S   -0.000066  -0.000087   0.001842  -0.006687  -0.000229
   25  C  9  S    0.992233   0.002976   0.000390   0.000727  -0.002484
   26  C  9  S    0.035482  -0.005719   0.000074   0.000418  -0.006780
   27  C  9  X   -0.001686  -0.001677   0.000118  -0.000143   0.004525
   28  C  9  Y   -0.000210  -0.003710  -0.000059  -0.000056  -0.000541
   29  C  9  Z    0.000585  -0.001547  -0.000099  -0.000043   0.000821
   30  H 10  S    0.000035  -0.006927   0.000108  -0.000081  -0.000063
   31  H 11  S   -0.000084  -0.007023   0.000033   0.000017  -0.000006
   32  H 12  S    0.000093  -0.000035  -0.000138   0.000303  -0.006750
   33  H 13  S   -0.006521   0.000082  -0.000099  -0.000091   0.000142
   34  B 14  S    0.000318   0.000020   0.000015   0.000011   0.000513
   35  B 14  S   -0.002336  -0.000015  -0.000104   0.000182  -0.004886
   36  B 14  X   -0.001531  -0.000030  -0.000031  -0.000095   0.001687
   37  B 14  Y   -0.001509  -0.000092  -0.000154  -0.000047  -0.002241
   38  B 14  Z    0.001915  -0.000020  -0.000058  -0.000067   0.002738
   39  H 15  S   -0.001438  -0.000015   0.000052   0.000018   0.000305
   40  H 16  S   -0.000033   0.000012   0.000106  -0.000136   0.000497
   41  H 17  S    0.000048  -0.000056  -0.000046  -0.000086   0.000532

                      6          7          8          9         10
                   -7.3064    -1.1251    -0.9695    -0.9438    -0.7820
                     A          A          A          A          A   
    1  C  1  S    0.000040  -0.084776  -0.151118  -0.013243  -0.132210
    2  C  1  S   -0.000027   0.219102   0.426391   0.038155   0.411406
    3  C  1  X    0.000009   0.005472   0.005741  -0.120778   0.011290
    4  C  1  Y    0.000331  -0.040180  -0.006472   0.002220   0.085135
    5  C  1  Z   -0.000066  -0.031071  -0.014920  -0.008209   0.111061
    6  C  2  S    0.000051  -0.104121  -0.074135   0.144586   0.085858
    7  C  2  S   -0.000081   0.272985   0.211238  -0.418784  -0.268620
    8  C  2  X    0.000150  -0.051394  -0.033511  -0.030867  -0.126066
    9  C  2  Y    0.000134  -0.031381   0.084010   0.034224   0.048029
   10  C  2  Z   -0.000141  -0.012579   0.041732   0.021193   0.087947
   11  C  3  S    0.000057  -0.085820  -0.068059  -0.147362   0.098291
   12  C  3  S   -0.000017   0.221725   0.190874   0.421219  -0.304324
   13  C  3  X   -0.000144   0.047489   0.036207  -0.005388   0.107613
   14  C  3  Y    0.000194  -0.026295   0.073651  -0.025172   0.037470
   15  C  3  Z   -0.000205  -0.002041   0.041862  -0.013399   0.089696
   16  H  4  S   -0.000110   0.038047   0.116718   0.009459   0.181002
   17  H  5  S   -0.000162   0.040769   0.108256   0.010150   0.193108
   18  C  6  S    0.000483  -0.120611   0.099910  -0.086289  -0.007920
   19  C  6  S   -0.004908   0.305489  -0.275032   0.245372   0.018487
   20  C  6  X   -0.000179   0.081969  -0.099444  -0.056466   0.111097
   21  C  6  Y    0.002422   0.029046   0.063432   0.060705  -0.124597
   22  C  6  Z   -0.002970   0.023864   0.010982   0.013523   0.009198
   23  H  7  S   -0.000138   0.041318   0.051138   0.117212  -0.150234
   24  H  8  S   -0.000146   0.036894   0.049004   0.116113  -0.121363
   25  C  9  S    0.000385  -0.137976   0.110928   0.066666  -0.023950
   26  C  9  S   -0.003190   0.366445  -0.320662  -0.199767   0.073470
   27  C  9  X    0.001104  -0.069369   0.097494  -0.115140  -0.110680
   28  C  9  Y    0.001654   0.042342   0.070786  -0.056436  -0.131800
   29  C  9  Z   -0.001909   0.026527   0.024058  -0.026430  -0.012284
   30  H 10  S    0.000037   0.048443   0.055491  -0.124806  -0.114200
   31  H 11  S   -0.000117   0.052946   0.057938  -0.124115  -0.148471
   32  H 12  S   -0.000256   0.051915  -0.074957   0.069905   0.006439
   33  H 13  S   -0.000134   0.064954  -0.094165  -0.066657   0.041564
   34  B 14  S    0.989596  -0.036050   0.045224  -0.006588  -0.047410
   35  B 14  S    0.043975   0.049573  -0.072778   0.011883   0.093785
   36  B 14  X    0.002039   0.008275  -0.012673  -0.020304   0.018973
   37  B 14  Y    0.001392   0.021784  -0.020423   0.007136   0.011540
   38  B 14  Z   -0.001676  -0.022594   0.035392  -0.007153  -0.026615
   39  H 15  S   -0.007490   0.029903  -0.042658  -0.021357   0.053569
   40  H 16  S   -0.007134   0.014442  -0.014421   0.009001   0.029231
   41  H 17  S   -0.007188   0.011295  -0.023185   0.005538   0.037049

                     11         12         13         14         15
                   -0.7348    -0.6747    -0.6653    -0.6029    -0.5524
                     A          A          A          A          A   
    1  C  1  S    0.003885   0.026599   0.000457  -0.005701   0.001175
    2  C  1  S   -0.012461  -0.085456  -0.003952   0.018786  -0.004078
    3  C  1  X    0.138940  -0.021388   0.020727  -0.018754   0.098078
    4  C  1  Y   -0.023608  -0.163623   0.124542  -0.180934   0.035056
    5  C  1  Z    0.001769   0.060511   0.115814   0.284169  -0.055916
    6  C  2  S   -0.054803  -0.011419  -0.020379   0.001618  -0.001068
    7  C  2  S    0.175770   0.037013   0.067088  -0.005712   0.005986
    8  C  2  X    0.023081  -0.007234   0.253207   0.034854  -0.002099
    9  C  2  Y    0.131853  -0.114459   0.078100  -0.177678  -0.131618
   10  C  2  Z    0.057935   0.142948   0.100972   0.206615   0.369562
   11  C  3  S    0.065382  -0.017928  -0.011821   0.001731  -0.002071
   12  C  3  S   -0.206333   0.058002   0.038853  -0.006380   0.005239
   13  C  3  X    0.063860  -0.021238  -0.198682  -0.051247   0.051646
   14  C  3  Y   -0.150424  -0.063803   0.028199  -0.148855   0.158422
   15  C  3  Z   -0.047894   0.116416   0.024828   0.138698  -0.352207
   16  H  4  S   -0.014589  -0.155849   0.076087  -0.175356   0.040407
   17  H  5  S   -0.006303   0.035492   0.069256   0.248142  -0.060212
   18  C  6  S   -0.120441   0.033992  -0.014852  -0.023696   0.006315
   19  C  6  S    0.382720  -0.113620   0.055500   0.086445  -0.028576
   20  C  6  X   -0.072269   0.029332  -0.201843  -0.077994   0.039608
   21  C  6  Y   -0.046958   0.032055  -0.199615   0.047770   0.019319
   22  C  6  Z   -0.046344   0.247828  -0.069035  -0.066067  -0.093709
   23  H  7  S   -0.110516  -0.067694   0.050475  -0.149761   0.314425
   24  H  8  S   -0.118214   0.084933   0.134475   0.099095  -0.222397
   25  C  9  S    0.105213   0.027569   0.035737  -0.022786  -0.005219
   26  C  9  S   -0.353497  -0.092959  -0.120526   0.083477   0.022835
   27  C  9  X   -0.230171  -0.035639   0.153684   0.095195  -0.037183
   28  C  9  Y    0.115962   0.050956  -0.248851   0.032861  -0.025275
   29  C  9  Z    0.070942   0.269858  -0.051494  -0.061177   0.083609
   30  H 10  S    0.087180   0.092937   0.200427   0.147437   0.240715
   31  H 11  S    0.082331  -0.113732   0.073072  -0.198018  -0.314569
   32  H 12  S    0.204906  -0.178655   0.196349   0.085266   0.014551
   33  H 13  S   -0.287917  -0.178671   0.132943   0.093001  -0.037012
   34  B 14  S   -0.005706  -0.127858  -0.082933   0.114104   0.016886
   35  B 14  S    0.012816   0.287734   0.189123  -0.264942  -0.043536
   36  B 14  X   -0.061914   0.043544   0.006942  -0.034675   0.075557
   37  B 14  Y    0.015038   0.048004  -0.033833   0.034881  -0.012485
   38  B 14  Z   -0.016461   0.020644  -0.018194  -0.000546  -0.013916
   39  H 15  S   -0.079067   0.186573   0.117556  -0.155473   0.073976
   40  H 16  S    0.013342   0.157042   0.075879  -0.110856  -0.071129
   41  H 17  S    0.014147   0.097297   0.116671  -0.152734  -0.031038

                     16         17         18         19         20
                   -0.5248    -0.4873    -0.4725    -0.4656    -0.4560
                     A          A          A          A          A   
    1  C  1  S   -0.024825  -0.010756  -0.004984   0.012792   0.012369
    2  C  1  S    0.093267   0.049074   0.022845  -0.056024  -0.051556
    3  C  1  X    0.038906   0.048507   0.057627  -0.141650   0.485137
    4  C  1  Y   -0.183172  -0.321773  -0.298801  -0.029067   0.058925
    5  C  1  Z   -0.054946  -0.126240   0.056107   0.402016   0.149548
    6  C  2  S   -0.000952  -0.001129  -0.029129   0.022056  -0.006634
    7  C  2  S    0.009816   0.005147   0.114817  -0.091663   0.031379
    8  C  2  X   -0.257025   0.044902  -0.229716   0.233613  -0.263445
    9  C  2  Y   -0.085275   0.374933   0.056777  -0.000500   0.197597
   10  C  2  Z   -0.067222   0.172801  -0.042380  -0.213966   0.032958
   11  C  3  S    0.006449  -0.029835   0.008842   0.003012   0.013340
   12  C  3  S   -0.017357   0.115041  -0.038901  -0.012614  -0.059836
   13  C  3  X    0.193472   0.218146  -0.185400   0.085336  -0.364121
   14  C  3  Y   -0.096773  -0.044107   0.343386   0.034733  -0.229903
   15  C  3  Z   -0.112172   0.009508   0.051336  -0.275499  -0.207110
   16  H  4  S   -0.114770  -0.270065  -0.297031  -0.125582   0.040787
   17  H  5  S    0.020488  -0.048872   0.107462   0.389824   0.087701
   18  C  6  S    0.006196   0.006152   0.039102  -0.004007   0.004526
   19  C  6  S   -0.007286  -0.020171  -0.160116   0.015456  -0.016583
   20  C  6  X   -0.368421   0.079560   0.124644   0.098152  -0.005474
   21  C  6  Y    0.061185   0.087755  -0.316911   0.142652   0.153001
   22  C  6  Z   -0.106253   0.080783  -0.216013  -0.024436   0.076787
   23  H  7  S   -0.014893  -0.031026   0.171504   0.224412   0.110276
   24  H  8  S   -0.196693  -0.103645   0.140521  -0.233217   0.153098
   25  C  9  S    0.021576   0.034446  -0.004797   0.002449  -0.014623
   26  C  9  S   -0.066392  -0.144514   0.019410  -0.011972   0.057215
   27  C  9  X    0.387149  -0.088521  -0.137618  -0.080235  -0.021850
   28  C  9  Y    0.071841  -0.371171   0.065094   0.059149  -0.046223
   29  C  9  Z   -0.005202  -0.242763   0.011415  -0.078645  -0.037970
   30  H 10  S   -0.193982   0.102534  -0.148435  -0.016906  -0.190393
   31  H 11  S   -0.078852   0.079137   0.030048   0.228310  -0.008153
   32  H 12  S    0.212435  -0.148363   0.156853  -0.102564  -0.146099
   33  H 13  S    0.135358   0.245967  -0.121938  -0.049045   0.078375
   34  B 14  S   -0.049229  -0.003094  -0.007827  -0.030608  -0.000800
   35  B 14  S    0.126996   0.007020   0.016499   0.074715   0.002445
   36  B 14  X   -0.012629  -0.004626   0.010814  -0.008738   0.027488
   37  B 14  Y   -0.069787  -0.029036  -0.106253  -0.002446   0.053352
   38  B 14  Z    0.094303  -0.025951  -0.072839   0.085817   0.053076
   39  H 15  S    0.102457  -0.018576  -0.009198   0.016648   0.032686
   40  H 16  S    0.120535  -0.013461  -0.078350   0.125176   0.055034
   41  H 17  S    0.116630   0.030718   0.119309   0.032600  -0.069460

                     21         22         23         24         25
                   -0.3955    -0.3914    -0.3394     0.2566     0.5305
                     A          A          A          A          A   
    1  C  1  S   -0.005050   0.002220  -0.003434   0.002482   0.050392
    2  C  1  S    0.019411  -0.012945   0.014416  -0.012070  -0.262389
    3  C  1  X   -0.042536   0.034136   0.012144  -0.013946  -0.045285
    4  C  1  Y   -0.046747   0.063452  -0.040713  -0.001894   0.295914
    5  C  1  Z    0.049090   0.089714   0.036625   0.002682   0.305791
    6  C  2  S    0.008404   0.000734  -0.006192   0.006799   0.016685
    7  C  2  S   -0.034858  -0.004158   0.027441  -0.031050  -0.096322
    8  C  2  X    0.025083   0.015078  -0.033969   0.050717  -0.034945
    9  C  2  Y    0.095821  -0.060468  -0.026122   0.037332   0.601161
   10  C  2  Z   -0.129177  -0.014843  -0.072381   0.061841   0.351735
   11  C  3  S   -0.008088  -0.011755   0.005709  -0.013821   0.013238
   12  C  3  S    0.032832   0.045595  -0.021647   0.065837  -0.072912
   13  C  3  X    0.051838  -0.003446   0.019012   0.035422   0.035269
   14  C  3  Y   -0.063615  -0.175315   0.084166  -0.077195   0.503610
   15  C  3  Z   -0.004857  -0.048577  -0.135856  -0.040445   0.346028
   16  H  4  S   -0.053931   0.051041  -0.043067   0.015896  -0.160282
   17  H  5  S    0.064815   0.050907   0.056668  -0.004856  -0.120610
   18  C  6  S   -0.010694  -0.003883  -0.013471   0.037257  -0.043545
   19  C  6  S    0.031193   0.021084   0.065442  -0.201381   0.227253
   20  C  6  X   -0.120158  -0.010990  -0.153098   0.126375  -0.081296
   21  C  6  Y    0.012987   0.153296  -0.300688   0.268240   0.344931
   22  C  6  Z   -0.011547   0.102035   0.456690  -0.387373   0.329648
   23  H  7  S   -0.032373  -0.045792   0.197048  -0.099415   0.080377
   24  H  8  S   -0.043912  -0.004411  -0.159745   0.062871  -0.145984
   25  C  9  S    0.020022  -0.002185   0.000537  -0.055331  -0.046632
   26  C  9  S   -0.068092   0.008779  -0.011874   0.278021   0.249284
   27  C  9  X    0.031478   0.024593   0.185073   0.017519   0.064865
   28  C  9  Y   -0.154173   0.062284  -0.144864  -0.482019   0.456307
   29  C  9  Z    0.255029   0.012804   0.238930   0.732295   0.310580
   30  H 10  S   -0.109225   0.004078  -0.104204  -0.148165  -0.097399
   31  H 11  S    0.172215  -0.023420   0.060736   0.180081   0.041123
   32  H 12  S    0.093282  -0.142528  -0.052912   0.133317   0.288339
   33  H 13  S   -0.090585  -0.018049   0.074322  -0.050229   0.311534
   34  B 14  S    0.046954  -0.005395   0.008427   0.042128   0.027093
   35  B 14  S   -0.122734   0.015816   0.002166  -0.166196  -0.123409
   36  B 14  X    0.378200  -0.021815  -0.217304  -0.112238  -0.047907
   37  B 14  Y    0.065055  -0.376497   0.204954  -0.068175  -0.031926
   38  B 14  Z   -0.130122  -0.287896  -0.253756   0.073212   0.263367
   39  H 15  S    0.418804  -0.034983  -0.295871  -0.377650   0.050365
   40  H 16  S   -0.328131  -0.395091  -0.085476   0.197170  -0.168199
   41  H 17  S   -0.246485   0.457364  -0.080536   0.175355   0.127090

                     26         27         28         29         30
                    0.5547     0.5868     0.6021     0.6242     0.6460
                     A          A          A          A          A   
    1  C  1  S   -0.018549  -0.002023  -0.051215   0.017560  -0.027500
    2  C  1  S    0.113761   0.012975   0.312586  -0.124593   0.174846
    3  C  1  X    0.340805   0.708113  -0.148118   0.242967   0.287343
    4  C  1  Y    0.256421  -0.246061   0.155801   0.103128   0.195016
    5  C  1  Z   -0.193936   0.252875  -0.028837  -0.490773  -0.012803
    6  C  2  S    0.039397   0.044637  -0.028834   0.058333  -0.053995
    7  C  2  S   -0.202166  -0.239392   0.190620  -0.354382   0.332235
    8  C  2  X    0.324453   0.523413   0.122213   0.010515   0.176785
    9  C  2  Y    0.373708  -0.186286   0.247152   0.059330  -0.467194
   10  C  2  Z   -0.186311   0.072185  -0.058701  -0.500386   0.034846
   11  C  3  S   -0.020056  -0.057071  -0.034673   0.023055  -0.004193
   12  C  3  S    0.115982   0.304176   0.224110  -0.153593   0.038280
   13  C  3  X    0.230255   0.433242  -0.273882   0.213855   0.065906
   14  C  3  Y    0.262631  -0.144646  -0.112957  -0.066893   0.507760
   15  C  3  Z   -0.149426   0.366651   0.032427  -0.155592  -0.154299
   16  H  4  S   -0.410841   0.256903  -0.312315  -0.150940  -0.284634
   17  H  5  S    0.241132  -0.284180  -0.074509   0.600602   0.013021
   18  C  6  S   -0.002117   0.020655  -0.031831   0.017791  -0.155530
   19  C  6  S    0.043348  -0.116958   0.190178  -0.139635   0.947628
   20  C  6  X    0.044097   0.342297  -0.315508   0.145572   0.073036
   21  C  6  Y    0.171048  -0.224817  -0.344720  -0.148277  -0.055385
   22  C  6  Z   -0.295289   0.152260   0.175856   0.449195  -0.037960
   23  H  7  S   -0.315998   0.358580  -0.050528   0.034244  -0.384221
   24  H  8  S    0.271534  -0.027367  -0.383583   0.341052   0.185497
   25  C  9  S   -0.056152  -0.022098  -0.141036   0.000863   0.108999
   26  C  9  S    0.353347   0.122735   0.869306  -0.039227  -0.687198
   27  C  9  X    0.496717   0.258455   0.039358  -0.177142   0.004882
   28  C  9  Y    0.145281   0.032554  -0.292891   0.059212  -0.167415
   29  C  9  Z   -0.074835  -0.074354  -0.108798   0.264430   0.152218
   30  H 10  S    0.051622  -0.354414  -0.084404   0.516171  -0.399169
   31  H 11  S   -0.393531   0.079089  -0.293095  -0.257619   0.061862
   32  H 12  S   -0.133425   0.272923  -0.286604   0.412606  -0.503017
   33  H 13  S   -0.451896  -0.248374  -0.686306   0.290350   0.344651
   34  B 14  S   -0.050406   0.021129   0.061065   0.064332   0.021621
   35  B 14  S    0.222075  -0.097600  -0.266535  -0.308943  -0.093882
   36  B 14  X   -0.163047   0.040278   0.028175   0.113123  -0.167108
   37  B 14  Y    0.285073  -0.118625  -0.459887  -0.284863  -0.299800
   38  B 14  Z   -0.393660   0.166871   0.413007   0.346225   0.269657
   39  H 15  S    0.079803   0.016607  -0.038327  -0.047842   0.188357
   40  H 16  S    0.017911  -0.022624   0.048461   0.012536  -0.100908
   41  H 17  S   -0.021505  -0.006338  -0.128339   0.041298  -0.196314

                     31         32         33         34         35
                    0.6917     0.7226     0.7282     0.7539     0.7550
                     A          A          A          A          A   
    1  C  1  S    0.030412  -0.206424  -0.027432  -0.012447   0.058319
    2  C  1  S   -0.151626   1.268851   0.177383   0.088550  -0.380573
    3  C  1  X   -0.013172  -0.022789   0.313565   0.415199   0.208665
    4  C  1  Y    0.429000  -0.255977   0.121810   0.102820  -0.262942
    5  C  1  Z    0.235242  -0.144425  -0.030177   0.268664  -0.244567
    6  C  2  S   -0.172221   0.052470   0.096673   0.056055  -0.019105
    7  C  2  S    1.071428  -0.299865  -0.607573  -0.369762   0.121410
    8  C  2  X    0.132917   0.593588  -0.040315  -0.407047   0.107273
    9  C  2  Y    0.053904  -0.057519  -0.331237  -0.134958  -0.140090
   10  C  2  Z   -0.256466  -0.233646   0.282559  -0.634807  -0.132088
   11  C  3  S   -0.094728   0.095307  -0.122753  -0.078327   0.081740
   12  C  3  S    0.576103  -0.563517   0.775620   0.500854  -0.506496
   13  C  3  X    0.062775  -0.586807  -0.168448  -0.214979  -0.001518
   14  C  3  Y   -0.109687  -0.092443   0.308012   0.150305   0.437561
   15  C  3  Z    0.075111  -0.044104  -0.325595   0.553277   0.425396
   16  H  4  S   -0.250425  -0.364343  -0.202223  -0.101508   0.325418
   17  H  5  S   -0.054664  -0.470734  -0.015773  -0.232279   0.323667
   18  C  6  S    0.061467  -0.012745   0.072264  -0.015216  -0.081892
   19  C  6  S   -0.387835   0.066334  -0.464009   0.103781   0.498762
   20  C  6  X    0.167039   0.069259  -0.199643  -0.012552  -0.501078
   21  C  6  Y   -0.038834   0.266919  -0.018571   0.144881   0.382207
   22  C  6  Z    0.040822   0.063634   0.221387  -0.211350   0.017737
   23  H  7  S   -0.124613   0.153675  -0.756607   0.072422   0.296308
   24  H  8  S   -0.279569  -0.117032  -0.260045  -0.655725   0.006470
   25  C  9  S    0.074960   0.017209  -0.046879   0.032311  -0.012949
   26  C  9  S   -0.471541  -0.122800   0.302993  -0.206386   0.106571
   27  C  9  X   -0.223045  -0.067728  -0.217805  -0.067328  -0.064567
   28  C  9  Y   -0.062701   0.221525   0.095071  -0.204388  -0.243623
   29  C  9  Z   -0.025213   0.151630  -0.166328   0.103473  -0.165727
   30  H 10  S   -0.389440  -0.075001   0.086526   0.757367  -0.044702
   31  H 11  S   -0.719189  -0.186386   0.613891  -0.071949  -0.127160
   32  H 12  S    0.285173   0.142773   0.275461  -0.120019  -0.283348
   33  H 13  S    0.301587   0.274661  -0.073376   0.061895  -0.194359
   34  B 14  S   -0.034186  -0.021508  -0.019483   0.005614  -0.002806
   35  B 14  S    0.160357   0.103827   0.099176  -0.035551   0.020014
   36  B 14  X    0.431052   0.111313   0.396985  -0.269486   0.633780
   37  B 14  Y    0.080482   0.220567   0.130692   0.025831   0.119645
   38  B 14  Z   -0.172843   0.090585  -0.006297  -0.079810  -0.060250
   39  H 15  S   -0.364064  -0.125100  -0.362539   0.194760  -0.535683
   40  H 16  S    0.188573  -0.148183   0.060358   0.001904   0.184051
   41  H 17  S    0.053307   0.193288   0.169157  -0.051224   0.283785

                     36         37         38         39         40
                    0.7876     0.8159     0.8215     0.8892     0.9054
                     A          A          A          A          A   
    1  C  1  S    0.085878  -0.019502  -0.008853  -0.020787   0.010275
    2  C  1  S   -0.562186   0.126783   0.060555   0.129835  -0.072388
    3  C  1  X   -0.002502  -0.053115  -0.041855   0.124276   0.030180
    4  C  1  Y   -0.610407   0.064467  -0.505422  -0.106308   0.019107
    5  C  1  Z   -0.302522   0.133336   0.686964  -0.026903  -0.157162
    6  C  2  S   -0.006853   0.075421  -0.009103   0.026538   0.013651
    7  C  2  S    0.050197  -0.489769   0.062034  -0.168325  -0.091782
    8  C  2  X    0.321174  -0.173014  -0.049040   0.299933   0.015547
    9  C  2  Y    0.285216   0.270787   0.237522   0.035034  -0.017931
   10  C  2  Z   -0.037680   0.050631  -0.450473   0.063342   0.058119
   11  C  3  S   -0.098845  -0.017191   0.009566   0.008884   0.005238
   12  C  3  S    0.639640   0.110351  -0.059146  -0.056159  -0.037768
   13  C  3  X   -0.524203   0.082479   0.244451   0.028263  -0.051080
   14  C  3  Y    0.115400  -0.244784   0.358357   0.039239  -0.043288
   15  C  3  Z   -0.070125  -0.012646  -0.533037   0.064746   0.155504
   16  H  4  S    0.706879  -0.088305   0.496374   0.019815  -0.013985
   17  H  5  S    0.424738  -0.178064  -0.651871  -0.054801   0.179391
   18  C  6  S   -0.021168  -0.091511   0.004877   0.042897   0.037027
   19  C  6  S    0.150650   0.616418  -0.037382  -0.308030  -0.229755
   20  C  6  X    0.215003   0.208798  -0.190110  -0.450721  -0.013340
   21  C  6  Y   -0.151574  -0.563172   0.032073   0.062372   0.218246
   22  C  6  Z   -0.101391  -0.321048   0.133833  -0.016941  -0.112857
   23  H  7  S   -0.478971   0.082457  -0.433530   0.053059   0.107434
   24  H  8  S   -0.579695   0.016516   0.484479  -0.010705  -0.080960
   25  C  9  S    0.013644   0.038465  -0.023761  -0.038901  -0.007425
   26  C  9  S   -0.104970  -0.281664   0.161248   0.273448   0.044962
   27  C  9  X    0.139093   0.461391  -0.090587  -0.494596   0.007256
   28  C  9  Y    0.272081   0.464927  -0.092790   0.348528   0.042530
   29  C  9  Z    0.201865   0.293138   0.032821   0.195960   0.036861
   30  H 10  S   -0.169138   0.316898   0.304356  -0.125285   0.015766
   31  H 11  S   -0.280299   0.159622  -0.378357   0.003720   0.065150
   32  H 12  S   -0.086779  -0.578196   0.033865  -0.058771   0.116321
   33  H 13  S    0.206465   0.273829  -0.045445   0.302318   0.028701
   34  B 14  S    0.008584  -0.012116  -0.033737   0.055531  -0.261126
   35  B 14  S   -0.049481   0.066637   0.202571  -0.324283   1.526288
   36  B 14  X   -0.127405   0.644489   0.072136  -0.109933  -0.024333
   37  B 14  Y    0.020327  -0.156894  -0.121556  -0.665144  -0.445509
   38  B 14  Z    0.073115  -0.074734   0.108614  -0.771382   0.076678
   39  H 15  S    0.127528  -0.538402  -0.176142   0.245373  -0.595182
   40  H 16  S   -0.086930   0.302533  -0.082207   0.868446  -0.598808
   41  H 17  S    0.017578   0.003862  -0.143022  -0.551812  -0.997778

                     41
                    0.9206
                     A   
    1  C  1  S   -0.011523
    2  C  1  S    0.073019
    3  C  1  X   -0.192749
    4  C  1  Y   -0.062367
    5  C  1  Z   -0.004762
    6  C  2  S   -0.010061
    7  C  2  S    0.059453
    8  C  2  X   -0.244641
    9  C  2  Y   -0.058476
   10  C  2  Z    0.026409
   11  C  3  S    0.034033
   12  C  3  S   -0.212776
   13  C  3  X   -0.355119
   14  C  3  Y    0.198736
   15  C  3  Z   -0.072119
   16  H  4  S    0.025225
   17  H  5  S   -0.050866
   18  C  6  S   -0.066601
   19  C  6  S    0.449852
   20  C  6  X    0.735624
   21  C  6  Y    0.435703
   22  C  6  Z    0.491929
   23  H  7  S   -0.108423
   24  H  8  S   -0.088220
   25  C  9  S    0.055560
   26  C  9  S   -0.401568
   27  C  9  X    0.707471
   28  C  9  Y   -0.281528
   29  C  9  Z   -0.232730
   30  H 10  S    0.088785
   31  H 11  S    0.084151
   32  H 12  S    0.531848
   33  H 13  S   -0.369470
   34  B 14  S    0.030804
   35  B 14  S   -0.191683
   36  B 14  X    0.173613
   37  B 14  Y   -0.441660
   38  B 14  Z   -0.354998
   39  H 15  S   -0.019131
   40  H 16  S    0.515730
   41  H 17  S   -0.276810
 ...... END OF RHF CALCULATION ......
 STEP CPU TIME =     0.10 TOTAL CPU TIME =          0.3 (      0.0 MIN)
 TOTAL WALL CLOCK TIME=          0.4 SECONDS, CPU UTILIZATION IS    89.19%

     ----------------------------------------------------------------
     PROPERTY VALUES FOR THE RHF   SELF-CONSISTENT FIELD WAVEFUNCTION
     ----------------------------------------------------------------

          -----------------
          ENERGY COMPONENTS
          -----------------

         WAVEFUNCTION NORMALIZATION =       1.0000000000

                ONE ELECTRON ENERGY =    -766.6823034083
                TWO ELECTRON ENERGY =     310.0614868551
           NUCLEAR REPULSION ENERGY =     238.8695593914
                                      ------------------
                       TOTAL ENERGY =    -217.7512571618

 ELECTRON-ELECTRON POTENTIAL ENERGY =     310.0614868551
  NUCLEUS-ELECTRON POTENTIAL ENERGY =    -982.8673106573
   NUCLEUS-NUCLEUS POTENTIAL ENERGY =     238.8695593914
                                      ------------------
             TOTAL POTENTIAL ENERGY =    -433.9362644108
               TOTAL KINETIC ENERGY =     216.1850072490
                 VIRIAL RATIO (V/T) =       2.0072449516

          ---------------------------------------
          MULLIKEN AND LOWDIN POPULATION ANALYSES
          ---------------------------------------

     ATOMIC MULLIKEN POPULATION IN EACH MOLECULAR ORBITAL

                      1          2          3          4          5

                  2.000000   2.000000   2.000000   2.000000   2.000000

    1            -0.000000  -0.000643   1.879520   0.122959   0.000151
    2            -0.000730   2.003380  -0.000615  -0.000037   0.000003
    3            -0.000000   0.000004   0.123043   1.877534   0.001400
    4            -0.000000   0.000002  -0.000911  -0.000074  -0.000000
    5             0.000000   0.000001  -0.000913  -0.000077  -0.000000
    6            -0.001072   0.000003  -0.000037   0.001553   2.001171
    7            -0.000000   0.000000  -0.000043  -0.000933  -0.000004
    8            -0.000000   0.000000  -0.000045  -0.000927  -0.000004
    9             2.003032  -0.000790  -0.000000   0.000002  -0.001178
   10             0.000000  -0.000975   0.000001  -0.000000  -0.000000
   11            -0.000001  -0.000982   0.000000   0.000000  -0.000000
   12             0.000001  -0.000000   0.000000   0.000001  -0.000966
   13            -0.000915   0.000001  -0.000000  -0.000000   0.000002
   14            -0.000269  -0.000001  -0.000000   0.000000  -0.000583
   15            -0.000046  -0.000000   0.000000   0.000000   0.000002
   16            -0.000000   0.000000   0.000000  -0.000000   0.000004
   17             0.000000  -0.000000   0.000000   0.000000   0.000004

                      6          7          8          9         10

                  2.000000   2.000000   2.000000   2.000000   2.000000

    1            -0.000000   0.227370   0.562368   0.096002   0.463290
    2            -0.000001   0.329865   0.197186   0.507324   0.266736
    3            -0.000001   0.234741   0.168888   0.529460   0.305453
    4            -0.000000   0.014535   0.092683   0.000562   0.142090
    5            -0.000000   0.017396   0.080670   0.000677   0.166252
    6            -0.000572   0.429426   0.296416   0.225980   0.127722
    7            -0.000000   0.017447   0.017945   0.087763   0.099295
    8            -0.000000   0.014014   0.016881   0.088670   0.065313
    9            -0.000275   0.544404   0.356431   0.204682   0.134196
   10             0.000000   0.022667   0.020380   0.096701   0.054601
   11            -0.000000   0.027064   0.021900   0.093652   0.092535
   12            -0.000003   0.024781   0.036879   0.030806   0.000142
   13            -0.000001   0.035894   0.053963   0.026028   0.006963
   14             2.004350   0.045452   0.056988   0.007094   0.047204
   15            -0.001126   0.010509   0.014026   0.003621   0.014871
   16            -0.001182   0.002788   0.001520   0.000728   0.005132
   17            -0.001189   0.001647   0.004876   0.000252   0.008205

                     11         12         13         14         15

                  2.000000   2.000000   2.000000   2.000000   2.000000

    1             0.088292   0.138963   0.114381   0.401813   0.045340
    2             0.151163   0.135037   0.306847   0.255598   0.467025
    3             0.213734   0.082328   0.162894   0.157397   0.487068
    4             0.000891   0.086276   0.021258   0.094234   0.004437
    5             0.000178   0.005112   0.018740   0.191329   0.010372
    6             0.340630   0.276995   0.329020   0.055349   0.041819
    7             0.048736   0.017192   0.009748   0.069154   0.273474
    8             0.057028   0.026525   0.067004   0.030882   0.140255
    9             0.511035   0.309136   0.313144   0.052839   0.032503
   10             0.029098   0.030173   0.140918   0.064786   0.156135
   11             0.025459   0.045369   0.019324   0.116397   0.262838
   12             0.164922   0.113314   0.140764   0.021562   0.000616
   13             0.307149   0.104158   0.061997   0.023424   0.003612
   14             0.031180   0.317318   0.140150   0.229386   0.035455
   15             0.028693   0.148246   0.061022   0.089812   0.016721
   16             0.000794   0.118811   0.027512   0.049761   0.018824
   17             0.001019   0.045049   0.065279   0.096277   0.003506

                     16         17         18         19         20

                  2.000000   2.000000   2.000000   2.000000   2.000000

    1             0.123565   0.339450   0.256166   0.487795   0.700219
    2             0.221960   0.461402   0.163558   0.264043   0.284291
    3             0.179417   0.152414   0.420617   0.225714   0.615646
    4             0.036085   0.182087   0.210684   0.033795   0.004189
    5             0.000753   0.006811   0.026221   0.365842   0.018692
    6             0.411241   0.055313   0.463752   0.083884   0.078093
    7             0.000743   0.003033   0.072161   0.117139   0.029574
    8             0.104610   0.028533   0.050036   0.128386   0.057960
    9             0.382245   0.520891   0.055593   0.042275   0.012604
   10             0.098378   0.026207   0.052975   0.000301   0.082848
   11             0.017025   0.015491   0.001485   0.120125   0.000199
   12             0.124842   0.054899   0.061748   0.025522   0.050487
   13             0.047931   0.142885   0.033552   0.005271   0.013175
   14             0.114064   0.006273   0.067444   0.046057   0.025203
   15             0.035241   0.000669   0.000260   0.001049   0.002774
   16             0.052153   0.000659   0.018901   0.049391   0.009375
   17             0.049749   0.002983   0.044847   0.003413   0.014672

                     21         22         23

                  2.000000   2.000000   2.000000

    1             0.015432   0.032172   0.006784
    2             0.061075   0.009353   0.015536
    3             0.017262   0.081021   0.056602
    4             0.005924   0.005477   0.003339
    5             0.008177   0.004768   0.005782
    6             0.033606   0.072906   0.773408
    7             0.002357   0.004577   0.073896
    8             0.004564   0.000095   0.048349
    9             0.239828   0.009083   0.240241
   10             0.022996   0.000020   0.021114
   11             0.060497   0.001132   0.006712
   12             0.017601   0.040442   0.004870
   13             0.014463   0.000525   0.009191
   14             0.629589   0.762169   0.497351
   15             0.406985   0.002809   0.200746
   16             0.293083   0.413985   0.019017
   17             0.166562   0.559464   0.017059

               ----- POPULATIONS IN EACH AO -----
                             MULLIKEN      LOWDIN
              1  C  1  S      1.99211     1.98512
              2  C  1  S      1.18223     1.03201
              3  C  1  X      0.92483     0.96699
              4  C  1  Y      0.99333     1.02031
              5  C  1  Z      1.00889     1.03433
              6  C  2  S      1.99210     1.98517
              7  C  2  S      1.18371     1.03262
              8  C  2  X      0.99512     1.02334
              9  C  2  Y      0.91956     0.96383
             10  C  2  Z      1.00951     1.03280
             11  C  3  S      1.99210     1.98514
             12  C  3  S      1.18165     1.03101
             13  C  3  X      0.98419     1.01383
             14  C  3  Y      0.93648     0.97631
             15  C  3  Z      0.99822     1.02437
             16  H  4  S      0.93756     0.97005
             17  H  5  S      0.92678     0.96214
             18  C  6  S      1.99220     1.98543
             19  C  6  S      1.16860     1.02629
             20  C  6  X      0.91746     0.97450
             21  C  6  Y      0.98119     1.00055
             22  C  6  Z      1.03716     1.04096
             23  H  7  S      0.94325     0.97524
             24  H  8  S      0.92813     0.96343
             25  C  9  S      1.99294     1.98636
             26  C  9  S      1.21310     1.06865
             27  C  9  X      1.01897     1.04766
             28  C  9  Y      0.91097     0.92424
             29  C  9  Z      0.82593     0.83079
             30  H 10  S      0.91932     0.95607
             31  H 11  S      0.92622     0.96001
             32  H 12  S      0.91323     0.95046
             33  H 13  S      0.88927     0.93500
             34  B 14  S      1.98815     1.97726
             35  B 14  S      0.87159     0.83098
             36  B 14  X      0.75195     0.81537
             37  B 14  Y      0.75883     0.81441
             38  B 14  Z      0.69135     0.75274
             39  H 15  S      1.03688     1.00883
             40  H 16  S      1.08126     1.06617
             41  H 17  S      1.08368     1.06920

          ----- MULLIKEN ATOMIC OVERLAP POPULATIONS -----
          (OFF-DIAGONAL ELEMENTS NEED TO BE MULTIPLIED BY 2)

             1           2           3           4           5

    1    4.7506932
    2    0.3606558   4.7442060
    3    0.3611258  -0.0314948   4.7332301
    4    0.3852601  -0.0199722  -0.0189682   0.6195637
    5    0.3863052  -0.0215887  -0.0205825  -0.0233260   0.6122696
    6   -0.0317192  -0.0365079   0.3720557   0.0013019   0.0002340
    7   -0.0205990   0.0004669   0.3818997  -0.0044784   0.0016682
    8   -0.0188310   0.0012818   0.3859442   0.0006887  -0.0046751
    9   -0.0341138   0.3687235  -0.0405800   0.0013967   0.0003103
   10   -0.0181614   0.3849951   0.0012602   0.0007514  -0.0045497
   11   -0.0191001   0.3802542   0.0004260  -0.0046321   0.0016488
   12    0.0011398   0.0013082  -0.0189217  -0.0000248  -0.0000221
   13    0.0010981  -0.0171099   0.0013004  -0.0000224  -0.0000251
   14   -0.0013806  -0.0080170  -0.0113168   0.0000128  -0.0002904
   15   -0.0000973  -0.0073370   0.0007942   0.0000009  -0.0000259
   16   -0.0008912  -0.0000863  -0.0038291   0.0000113  -0.0005762
   17    0.0000020   0.0002214   0.0002913  -0.0000000   0.0000082

             6           7           8           9          10

    6    4.8362163
    7   -0.0227461   0.6328164
    8   -0.0205727  -0.0243465   0.6100915
    9    0.4569355  -0.0007411   0.0016205   4.7772463
   10    0.0012888  -0.0000418  -0.0000191  -0.0199352   0.5993953
   11   -0.0002028   0.0001946  -0.0000366  -0.0222823  -0.0222378
   12    0.3936907  -0.0019114  -0.0000019  -0.0224878  -0.0000181
   13   -0.0185729  -0.0000295  -0.0000249   0.3902113  -0.0002342
   14    0.2021163   0.0010738  -0.0030496   0.0800070  -0.0015668
   15   -0.0237914  -0.0000443   0.0000474   0.0433137  -0.0018116
   16   -0.0062549   0.0000802  -0.0000120  -0.0086864   0.0001844
   17   -0.0068673  -0.0000074   0.0000236  -0.0090178   0.0000233

            11          12          13          14          15

   11    0.6126924
   12   -0.0000614   0.5772994
   13   -0.0015504  -0.0026293   0.5562109
   14    0.0007105  -0.0108975  -0.0088135   3.7041503
   15    0.0004286   0.0011294  -0.0106034   0.3182136   0.7341108
   16   -0.0000206   0.0001970   0.0003235   0.3995183  -0.0084747
   17   -0.0000110  -0.0045594  -0.0002614   0.4014020  -0.0089701

            16          17

   16    0.7199366
   17   -0.0101640   0.7215632

          TOTAL MULLIKEN AND LOWDIN ATOMIC POPULATIONS
       ATOM         MULL.POP.    CHARGE          LOW.POP.     CHARGE
    1 C             6.101386   -0.101386         6.038767   -0.038767
    2 C             6.099999   -0.099999         6.037766   -0.037766
    3 C             6.092634   -0.092634         6.030659   -0.030659
    4 H             0.937563    0.062437         0.970049    0.029951
    5 H             0.926783    0.073217         0.962136    0.037864
    6 C             6.096604   -0.096604         6.027733   -0.027733
    7 H             0.943254    0.056746         0.975242    0.024758
    8 H             0.928128    0.071872         0.963429    0.036571
    9 C             5.961921    0.038079         5.857710    0.142290
   10 H             0.919323    0.080677         0.956071    0.043929
   11 H             0.926220    0.073780         0.960014    0.039986
   12 H             0.913229    0.086771         0.950462    0.049538
   13 H             0.889267    0.110733         0.935002    0.064998
   14 B             5.061872   -0.061872         5.190766   -0.190766
   15 H             1.036883   -0.036883         1.008832   -0.008832
   16 H             1.081256   -0.081256         1.066166   -0.066166
   17 H             1.083676   -0.083676         1.069197   -0.069197

          -------------------------------
          BOND ORDER AND VALENCE ANALYSIS     BOND ORDER THRESHOLD=0.050
          -------------------------------

                   BOND                       BOND                       BOND
  ATOM PAIR DIST  ORDER      ATOM PAIR DIST  ORDER      ATOM PAIR DIST  ORDER
    1   2  1.551  0.987        1   3  1.552  0.989        1   4  1.087  0.978
    1   5  1.086  0.976        2   9  1.533  0.986        2  10  1.087  0.971
    2  11  1.090  0.967        3   6  1.535  0.983        3   7  1.090  0.972
    3   8  1.087  0.973        6   9  1.404  1.306        6  12  1.080  0.963
    6  14  1.741  0.608        6  15  2.428  0.052        9  13  1.088  0.959
    9  14  1.889  0.349        9  15  1.756  0.164       14  15  1.197  0.767
   14  16  1.152  0.959       14  17  1.153  0.964

                       TOTAL       BONDED        FREE
      ATOM            VALENCE     VALENCE     VALENCE
    1 C                 3.961       3.961       0.000
    2 C                 3.953       3.953       0.000
    3 C                 3.961       3.961      -0.000
    4 H                 0.996       0.996       0.000
    5 H                 0.995       0.995       0.000
    6 C                 3.950       3.950       0.000
    7 H                 0.997       0.997      -0.000
    8 H                 0.995       0.995       0.000
    9 C                 3.853       3.853       0.000
   10 H                 0.993       0.993       0.000
   11 H                 0.995       0.995       0.000
   12 H                 0.992       0.992       0.000
   13 H                 0.988       0.988      -0.000
   14 B                 3.670       3.670       0.000
   15 H                 0.999       0.999       0.000
   16 H                 0.993       0.993       0.000
   17 H                 0.993       0.993       0.000

          ---------------------
          ELECTROSTATIC MOMENTS
          ---------------------

 POINT   1           X           Y           Z (BOHR)    CHARGE
                -1.892266    0.742462   -0.282945        0.00 (A.U.)
         DX          DY          DZ         /D/  (DEBYE)
     1.536737    2.492211   -2.264945    3.701709
 ...... END OF PROPERTY EVALUATION ......
 STEP CPU TIME =     0.02 TOTAL CPU TIME =          0.3 (      0.0 MIN)
 TOTAL WALL CLOCK TIME=          0.4 SECONDS, CPU UTILIZATION IS    89.74%


 JUMPING OFF SADDLE POINT ALONG THE IMAGINARY NORMAL MODE...

 $HESS GROUP READ FROM CARDS
 ENERGY IS     -217.7512571618 E(NUC) IS      238.8695593914                     
 INITIAL DISPLACEMENT= -0.05 ALONG MODE WITH FREQUENCY=     740.094 I CM**-1
 THE COMPONENTS OF THE DISPLACEMENT ARE (BOHR) -
    0.000006  -0.000102  -0.000095
    0.000423   0.000530  -0.000022
    0.000259  -0.000267  -0.000387
    0.000179  -0.000067   0.000136
    0.000128  -0.000141  -0.000084
   -0.001902  -0.002879   0.003773
    0.001164  -0.000244  -0.000594
    0.000138   0.001868  -0.000343
    0.002775  -0.002128   0.003183
    0.001296   0.002913  -0.000492
   -0.001202  -0.000321  -0.001272
    0.003099   0.004562  -0.005208
    0.001494   0.004155  -0.005105
   -0.004560   0.003079  -0.004371
    0.003460   0.017530  -0.024867
    0.012238  -0.002581   0.005366
    0.009222  -0.003607   0.003381

 *********************************************
 ***** STARTING CONSTRAINED OPTIMIZATION *****
 *** TO FIND THE NEXT REACTION PATH POINT ****
 *********************************************
 CONSTRAINED OPTIMIZATION POINT   1 FOR PATH POINT   1
 COORDINATES OF SYMMETRY UNIQUE ATOMS (ANGS)
   ATOM   CHARGE       X              Y              Z
 ------------------------------------------------------------
 C           6.0  -0.9536882105   1.7916625109   0.4108647789
 C           6.0   0.2852236752   1.0595867192  -0.1680092649
 C           6.0  -2.1778165695   1.1647040194  -0.3073511534
 H           1.0  -0.8908680295   2.8644649512   0.2503336299
 H           1.0  -1.0173019887   1.6150985120   1.4806451954
 C           6.0  -1.6901748334  -0.2241077453  -0.7459196171
 H           1.0  -2.4493801937   1.7501720395  -1.1855803984
 H           1.0  -3.0473427475   1.1139364064   0.3430698951
 C           6.0  -0.2819202138  -0.2536684547  -0.7186735375
 H           1.0   1.0752602424   0.9064803345   0.5630028090
 H           1.0   0.7062606077   1.6038951006  -1.0133888242
 H           1.0  -2.2421254513  -0.7619821505  -1.5029733273
 H           1.0   0.3228414655  -0.9067940689  -1.3439647054
 B           5.0  -1.2314928886  -1.2721331279   0.5515919982
 H           1.0  -0.0308297152  -1.2888519149   0.6318367903
 H           1.0  -1.6151555355  -0.7912772861   1.5256803591
 H           1.0  -1.5546040325  -2.3326811826   0.2359099775
 ...... END OF ONE-ELECTRON INTEGRALS ......
 STEP CPU TIME =     0.01 TOTAL CPU TIME =          0.4 (      0.0 MIN)
 TOTAL WALL CLOCK TIME=          0.4 SECONDS, CPU UTILIZATION IS    90.00%
 TOTAL NUMBER OF NONZERO TWO-ELECTRON INTEGRALS =              359781
         24 INTEGRAL RECORDS WERE STORED ON DISK FILE  8.
  ...... END OF TWO-ELECTRON INTEGRALS .....
 STEP CPU TIME =     0.12 TOTAL CPU TIME =          0.5 (      0.0 MIN)
 TOTAL WALL CLOCK TIME=          0.5 SECONDS, CPU UTILIZATION IS    94.12%

          --------------------------
                 RHF SCF CALCULATION
          --------------------------
     DENSITY MATRIX CONV=  1.00E-05

 ITER EX DEM     TOTAL ENERGY        E CHANGE  DENSITY CHANGE     ORB. GRAD
          ---------------START SECOND ORDER SCF---------------
   1  0  0     -217.7510160943  -217.7510160943   0.010208209   0.004877881
   2  1  0     -217.7512980042    -0.0002819100   0.007488424   0.001954676
   3  2  0     -217.7513660498    -0.0000680455   0.001089364   0.000403945
   4  3  0     -217.7513677970    -0.0000017472   0.000454505   0.000107108
   5  4  0     -217.7513681280    -0.0000003310   0.000114145   0.000035166
   6  5  0     -217.7513681528    -0.0000000248   0.000030394   0.000009981
   7  6  0     -217.7513681553    -0.0000000025   0.000010375   0.000003192
   8  7  0     -217.7513681555    -0.0000000002   0.000001133   0.000000440
   9  8  0     -217.7513681555    -0.0000000000   0.000000298   0.000000069

          -----------------
          DENSITY CONVERGED
          -----------------
     TIME TO FORM FOCK OPERATORS=       0.0 SECONDS (       0.0 SEC/ITER)
     TIME TO SOLVE SCF EQUATIONS=       0.0 SECONDS (       0.0 SEC/ITER)

 FINAL RHF ENERGY IS     -217.7513681555 AFTER   9 ITERATIONS
 ...... END OF RHF CALCULATION ......
 STEP CPU TIME =     0.07 TOTAL CPU TIME =          0.6 (      0.0 MIN)
 TOTAL WALL CLOCK TIME=          0.6 SECONDS, CPU UTILIZATION IS    93.22%
 ..... END OF 1-ELECTRON GRADIENT ......
 STEP CPU TIME =     0.03 TOTAL CPU TIME =          0.6 (      0.0 MIN)
 TOTAL WALL CLOCK TIME=          0.6 SECONDS, CPU UTILIZATION IS    93.55%
 ...... END OF 2-ELECTRON GRADIENT ......
 STEP CPU TIME =     0.19 TOTAL CPU TIME =          0.8 (      0.0 MIN)
 TOTAL WALL CLOCK TIME=          0.8 SECONDS, CPU UTILIZATION IS    95.06%

 UNITS ARE HARTREE/BOHR    E'X               E'Y               E'Z 
    1 C               -0.000010472       0.000017261       0.000042018
    2 C               -0.000244585      -0.000303877       0.000059728
    3 C               -0.000126488       0.000117540       0.000202757
    4 H               -0.000004937       0.000026968      -0.000023435
    5 H               -0.000006077       0.000014912       0.000039982
    6 C                0.001188810       0.001476048      -0.001854537
    7 H               -0.000055202       0.000018373       0.000013195
    8 H               -0.000015814      -0.000076736       0.000026668
    9 C               -0.001758067       0.001248699      -0.001739961
   10 H               -0.000029021      -0.000127811       0.000048524
   11 H                0.000070347       0.000020599       0.000013834
   12 H               -0.000170509      -0.000235365       0.000171055
   13 H               -0.000017137      -0.000247405       0.000219666
   14 B                0.002429292      -0.001317665       0.001861707
   15 H               -0.000188567      -0.000861320       0.001199206
[...]
   1  0  0     -217.8297599467  -217.8297599467   0.003107134   0.001519536
   2  1  0     -217.8298107504    -0.0000508038   0.002839986   0.000794011
   3  2  0     -217.8298217535    -0.0000110031   0.000526145   0.000166359
   4  3  0     -217.8298222228    -0.0000004693   0.000274267   0.000056769
   5  4  0     -217.8298223275    -0.0000001047   0.000010912   0.000003393
   6  5  0     -217.8298223279    -0.0000000004   0.000003995   0.000001476
   7  6  0     -217.8298223280    -0.0000000000   0.000001872   0.000000472

          -----------------
          DENSITY CONVERGED
          -----------------
     TIME TO FORM FOCK OPERATORS=       0.0 SECONDS (       0.0 SEC/ITER)
     TIME TO SOLVE SCF EQUATIONS=       0.0 SECONDS (       0.0 SEC/ITER)

 FINAL RHF ENERGY IS     -217.8298223280 AFTER   7 ITERATIONS
 ...... END OF RHF CALCULATION ......
 STEP CPU TIME =     0.06 TOTAL CPU TIME =         58.7 (      1.0 MIN)
 TOTAL WALL CLOCK TIME=         59.5 SECONDS, CPU UTILIZATION IS    98.74%
 ..... END OF 1-ELECTRON GRADIENT ......
 STEP CPU TIME =     0.03 TOTAL CPU TIME =         58.8 (      1.0 MIN)
 TOTAL WALL CLOCK TIME=         59.5 SECONDS, CPU UTILIZATION IS    98.74%
 ...... END OF 2-ELECTRON GRADIENT ......
 STEP CPU TIME =     0.18 TOTAL CPU TIME =         58.9 (      1.0 MIN)
 TOTAL WALL CLOCK TIME=         59.7 SECONDS, CPU UTILIZATION IS    98.74%

 UNITS ARE HARTREE/BOHR    E'X               E'Y               E'Z 
    1 C               -0.000280489       0.001704801      -0.001340267
    2 C                0.000147478      -0.000780837       0.001009462
    3 C                0.000108303       0.000521253      -0.001382111
    4 H                0.000105709      -0.001145385      -0.000032156
    5 H               -0.000081634      -0.000344224       0.001286754
    6 C                0.000046778      -0.000005596      -0.000116510
    7 H                0.000171116      -0.000475067       0.000993469
    8 H               -0.000430446       0.000074330       0.000237498
    9 C               -0.000788428       0.000094653       0.000384475
   10 H               -0.000219987      -0.000078024      -0.000081627
   11 H                0.000310023       0.000428086      -0.000541930
   12 H               -0.000065873       0.000039909      -0.000045766
   13 H                0.000177312      -0.000000196      -0.000515137
   14 B                0.000437068       0.001155938       0.001672646
   15 H                0.000214503      -0.000133173      -0.000008198
   16 H                0.000142708      -0.000519590      -0.001426069
   17 H                0.000005859      -0.000536878      -0.000094535

 CURRENT OPTIMIZATION POINT :
 ENERGY                                 =  -217.8298223 HARTREE
 MASS WEIGHTED TANGENT GRADIENT NORM    =     0.0030532 HARTREE/BOHR-SQRT(AMU)
 NEXT GEOMETRY STEP HAS PREDICTED ANGLE =        17.944 DEGREES
 AND CARTESIAN RMS DISPLACEMENT         =     0.0124019 BOHR

 CONSTRAINED OPTIMIZATION POINT   2 FOR PATH POINT  65
 COORDINATES OF SYMMETRY UNIQUE ATOMS (ANGS)
   ATOM   CHARGE       X              Y              Z
 ------------------------------------------------------------
 C           6.0  -0.9378157009   1.7838282563   0.4266529003
 C           6.0   0.3304231459   1.2241249381  -0.2586358899
 C           6.0  -2.1063441876   1.0855795998  -0.2974096569
 H           1.0  -0.9956621317   2.8672342124   0.3583961782
 H           1.0  -0.9425134468   1.5151426410   1.4801908844
 C           6.0  -1.5967710060  -0.3530394251  -0.5748934290
 H           1.0  -2.3089168607   1.5928325139  -1.2386391737
 H           1.0  -3.0206475583   1.1024719430   0.2909985990
 C           6.0  -0.0486669897  -0.1890766617  -0.7856980516
 H           1.0   1.1736840467   1.1845774711   0.4262116764
 H           1.0   0.6154920588   1.8631494118  -1.0906335486
 H           1.0  -2.0449834024  -0.7470141666  -1.4829275655
 H           1.0   0.1998141206  -0.2848751533  -1.8396022700
 B           5.0  -1.7639963415  -1.3651726410   0.6194839288
 H           1.0   0.5166268142  -0.9588152818  -0.2617483357
 H           1.0  -1.7748879327  -0.9956949673   1.7207110203
 H           1.0  -1.8119060834  -2.5078423102   0.4143613800
 ...... END OF ONE-ELECTRON INTEGRALS ......
 STEP CPU TIME =     0.01 TOTAL CPU TIME =         59.0 (      1.0 MIN)
 TOTAL WALL CLOCK TIME=         59.7 SECONDS, CPU UTILIZATION IS    98.74%
 TOTAL NUMBER OF NONZERO TWO-ELECTRON INTEGRALS =              358933
         24 INTEGRAL RECORDS WERE STORED ON DISK FILE  8.
  ...... END OF TWO-ELECTRON INTEGRALS .....
 STEP CPU TIME =     0.11 TOTAL CPU TIME =         59.1 (      1.0 MIN)
 TOTAL WALL CLOCK TIME=         59.8 SECONDS, CPU UTILIZATION IS    98.75%

          --------------------------
                 RHF SCF CALCULATION
          --------------------------
     DENSITY MATRIX CONV=  1.00E-05

 ITER EX DEM     TOTAL ENERGY        E CHANGE  DENSITY CHANGE     ORB. GRAD
          ---------------START SECOND ORDER SCF---------------
   1  0  0     -217.8298305851  -217.8298305851   0.000742493   0.000187451
   2  1  0     -217.8298324169    -0.0000018318   0.000388943   0.000099269
   3  2  0     -217.8298327147    -0.0000002978   0.000081878   0.000026099
   4  3  0     -217.8298327263    -0.0000000116   0.000055144   0.000010090
   5  4  0     -217.8298327293    -0.0000000030   0.000002845   0.000000657
   6  5  0     -217.8298327293    -0.0000000000   0.000000582   0.000000227

          -----------------
          DENSITY CONVERGED
          -----------------
     TIME TO FORM FOCK OPERATORS=       0.1 SECONDS (       0.0 SEC/ITER)
     TIME TO SOLVE SCF EQUATIONS=       0.0 SECONDS (       0.0 SEC/ITER)

 FINAL RHF ENERGY IS     -217.8298327293 AFTER   6 ITERATIONS
 ...... END OF RHF CALCULATION ......
 STEP CPU TIME =     0.05 TOTAL CPU TIME =         59.1 (      1.0 MIN)
 TOTAL WALL CLOCK TIME=         59.9 SECONDS, CPU UTILIZATION IS    98.75%
 ..... END OF 1-ELECTRON GRADIENT ......
 STEP CPU TIME =     0.03 TOTAL CPU TIME =         59.1 (      1.0 MIN)
 TOTAL WALL CLOCK TIME=         59.9 SECONDS, CPU UTILIZATION IS    98.75%
 ...... END OF 2-ELECTRON GRADIENT ......
 STEP CPU TIME =     0.18 TOTAL CPU TIME =         59.3 (      1.0 MIN)
 TOTAL WALL CLOCK TIME=         60.1 SECONDS, CPU UTILIZATION IS    98.75%

 UNITS ARE HARTREE/BOHR    E'X               E'Y               E'Z 
    1 C               -0.000097866      -0.000027526      -0.000092419
    2 C               -0.000084515      -0.000293667       0.000288410
    3 C               -0.000144837       0.000126721      -0.000120783
    4 H                0.000023325       0.000124745      -0.000061614
    5 H               -0.000055804       0.000053654      -0.000000508
    6 C               -0.000169033       0.000071382      -0.000187580
    7 H                0.000027998      -0.000061545       0.000047279
    8 H               -0.000014028       0.000009691      -0.000005329
    9 C               -0.000276777       0.000140218      -0.000192527
   10 H                0.000053451      -0.000089322       0.000159977
   11 H                0.000125063      -0.000025001       0.000045776
   12 H               -0.000045363      -0.000014799       0.000034202
   13 H                0.000021632      -0.000007076      -0.000032775
   14 B                0.000413470       0.000059618       0.000180960
   15 H                0.000028889      -0.000109931       0.000002722
   16 H                0.000142622       0.000001433      -0.000024849
   17 H                0.000051774       0.000041409      -0.000040941

 STOPPING BECAUSE GRADIENT IS BELOW -OPTTOL-
 YOUR RUN IS PROBABLY VERY NEAR A PES MINIMUM.
 MAX GRADIENT= 0.000413 RMS GRADIENT= 0.000124


 *******************************************
 ***** END OF CONSTRAINED OPTIMIZATION *****
 *******************************************

 ANGLE BETWEEN GRADIENTS AT CURRENT AND PREVIOUS IRC POINT =  17.944
 ENERGY WAS LOWERED BY      0.0000104014 HARTREE DURING OPTIMIZATION

 ***** NEXT POINT ON IRC FOUND *****
 STEP DISTANCE IS   0.09878 SQRT(AMU)-BOHR)

1         POINT  65 ON THE REACTION PATH
          ******************************
          AT PATH DISTANCE STOTAL =   6.49618     SQRT(AMU)-BOHR
          TOTAL ENERGY            =  -217.8298327 HARTREE
            2 CONSTRAINED OPTIMIZATION STEPS WERE PERFORMED
  
 COORDINATES OF ALL ATOMS ARE (ANGS)
   ATOM   CHARGE       X              Y              Z
 ------------------------------------------------------------
 C           6.0  -0.9378157009   1.7838282563   0.4266529003
 C           6.0   0.3304231459   1.2241249381  -0.2586358899
 C           6.0  -2.1063441876   1.0855795998  -0.2974096569
 H           1.0  -0.9956621317   2.8672342124   0.3583961782
 H           1.0  -0.9425134468   1.5151426410   1.4801908844
 C           6.0  -1.5967710060  -0.3530394251  -0.5748934290
 H           1.0  -2.3089168607   1.5928325139  -1.2386391737
 H           1.0  -3.0206475583   1.1024719430   0.2909985990
 C           6.0  -0.0486669897  -0.1890766617  -0.7856980516
 H           1.0   1.1736840467   1.1845774711   0.4262116764
 H           1.0   0.6154920588   1.8631494118  -1.0906335486
 H           1.0  -2.0449834024  -0.7470141666  -1.4829275655
 H           1.0   0.1998141206  -0.2848751533  -1.8396022700
 B           5.0  -1.7639963415  -1.3651726410   0.6194839288
 H           1.0   0.5166268142  -0.9588152818  -0.2617483357
 H           1.0  -1.7748879327  -0.9956949673   1.7207110203
 H           1.0  -1.8119060834  -2.5078423102   0.4143613800
  

          INTERNUCLEAR DISTANCES (ANGS.)
          ------------------------------

                1 C          2 C          3 C          4 H          5 H     

   1 C       0.0000000    1.5463888 *  1.5418419 *  1.0870941 *  1.0872701 *
   2 C       1.5463888 *  0.0000000    2.4410107 *  2.1997815 *  2.1745292 *
   3 C       1.5418419 *  2.4410107 *  0.0000000    2.1995429 *  2.1676923 *
   4 H       1.0870941 *  2.1997815 *  2.1995429 *  0.0000000    1.7576688 *
   5 H       1.0872701 *  2.1745292 *  2.1676923 *  1.7576688 *  0.0000000  
   6 C       2.4502083 *  2.5102875 *  1.5512211 *  3.4062477    2.8533364 *
   7 H       2.1655474 *  2.8394484 *  1.0882344 *  2.4288391 *  3.0438678  
   8 H       2.1956405 *  3.3980248    1.0874099 *  2.6869117 *  2.4296331 *
   9 C       2.4804705 *  1.5551986 *  2.4692528 *  3.3980564    2.9728063 *
  10 H       2.1948879 *  1.0870461 *  3.3603592    2.7462694 *  2.3871400 *
  11 H       2.1728357 *  1.0871231 *  2.9397639 *  2.3882402 *  3.0261573  
  12 H       3.3581961    3.3206680    2.1834875 *  4.1897899    3.8875268  
  13 H       3.2725598    2.1894279 *  3.0943288    4.0244446    3.9453774  
  14 B       3.2612827    3.4441471    2.6389548 *  4.3094979    3.1163868  
  15 H       3.1798416    2.1908696 *  3.3257780    4.1605591    3.3591532  
  16 H       3.1782111    3.6438646    2.9179407 *  4.1695703    2.6561255 *
  17 H       4.3797970    4.3554655    3.6750500    5.4369876    4.2516166  

                6 C          7 H          8 H          9 C         10 H     

   1 C       2.4502083 *  2.1655474 *  2.1956405 *  2.4804705 *  2.1948879 *
   2 C       2.5102875 *  2.8394484 *  3.3980248    1.5551986 *  1.0870461 *
   3 C       1.5512211 *  1.0882344 *  1.0874099 *  2.4692528 *  3.3603592  
   4 H       3.4062477    2.4288391 *  2.6869117 *  3.3980564    2.7462694 *
   5 H       2.8533364 *  3.0438678    2.4296331 *  2.9728063 *  2.3871400 *
   6 C       0.0000000    2.1758051 *  2.2126244 *  1.5709705 *  3.3229352  
   7 H       2.1758051 *  0.0000000    1.7569308 *  2.9136035 *  3.8816117  
   8 H       2.2126244 *  1.7569308 *  0.0000000    3.4146804    4.1973136  
   9 C       1.5709705 *  2.9136035 *  3.4146804    0.0000000    2.2022245 *
  10 H       3.3229352    3.8816117    4.1973136    2.2022245 *  0.0000000  
  11 H       3.1735766    2.9406027 *  3.9634643    2.1784684 *  1.7529568 *
  12 H       1.0865710 *  2.3673234 *  2.7421403 *  2.1869391 *  4.2113750  
  13 H       2.1981476 *  3.1907168    4.1031166    1.0870300 *  2.8708233 *
  14 B       1.5744571 *  3.5354426    2.7886098 *  2.5099986 *  3.8946817  
  15 H       2.2206924 *  3.9305113    4.1311916    1.0893016 *  2.3450257 *
  16 H       2.3905086 *  3.9677972    2.8281264 *  3.1484216    3.8888807  
  17 H       2.3807738 *  4.4491532    3.8092838    3.1505283    4.7484579  

               11 H         12 H         13 H         14 B         15 H     

   1 C       2.1728357 *  3.3581961    3.2725598    3.2612827    3.1798416  
   2 C       1.0871231 *  3.3206680    2.1894279 *  3.4441471    2.1908696 *
   3 C       2.9397639 *  2.1834875 *  3.0943288    2.6389548 *  3.3257780  
   4 H       2.3882402 *  4.1897899    4.0244446    4.3094979    4.1605591  
   5 H       3.0261573    3.8875268    3.9453774    3.1163868    3.3591532  
   6 C       3.1735766    1.0865710 *  2.1981476 *  1.5744571 *  2.2206924 *
   7 H       2.9406027 *  2.3673234 *  3.1907168    3.5354426    3.9305113  
   8 H       3.9634643    2.7421403 *  4.1031166    2.7886098 *  4.1311916  
   9 C       2.1784684 *  2.1869391 *  1.0870300 *  2.5099986 *  1.0893016 *
  10 H       1.7529568 *  4.2113750    2.8708233 *  3.8946817    2.3450257 *
  11 H       0.0000000    3.7476630    2.3125207 *  4.3598773    2.9428404 *
  12 H       3.7476630    0.0000000    2.3194623 *  2.2093455 *  2.8456959 *
  13 H       2.3125207 *  2.3194623 *  0.0000000    3.3272660    1.7447603 *
  14 B       4.3598773    2.2093455 *  3.3272660    0.0000000    2.4784952 *
  15 H       2.9428404 *  2.8456959 *  1.7447603 *  2.4784952 *  0.0000000  
  16 H       4.6680366    3.2246076    4.1328614    1.1616081 *  3.0302714  
  17 H       5.2213830    2.5989510 *  3.7508603    1.1619228 *  2.8772686 *

               16 H         17 H     

   1 C       3.1782111    4.3797970  
   2 C       3.6438646    4.3554655  
   3 C       2.9179407 *  3.6750500  
   4 H       4.1695703    5.4369876  
   5 H       2.6561255 *  4.2516166  
   6 C       2.3905086 *  2.3807738 *
   7 H       3.9677972    4.4491532  
   8 H       2.8281264 *  3.8092838  
   9 C       3.1484216    3.1505283  
  10 H       3.8888807    4.7484579  
  11 H       4.6680366    5.2213830  
  12 H       3.2246076    2.5989510 *
  13 H       4.1328614    3.7508603  
  14 B       1.1616081 *  1.1619228 *
  15 H       3.0302714    2.8772686 *
  16 H       0.0000000    1.9986269 *
  17 H       1.9986269 *  0.0000000  

  * ... LESS THAN  3.000


          CURRENT CARTESIAN GRADIENT
          ATOM               DE/DX          DE/DY          DE/DZ
          -----------------------------------------------------------
          C               -0.0000978663  -0.0000275263  -0.0000924189
          C               -0.0000845149  -0.0002936674   0.0002884098
          C               -0.0001448366   0.0001267210  -0.0001207827
          H                0.0000233252   0.0001247448  -0.0000616138
          H               -0.0000558045   0.0000536535  -0.0000005082
          C               -0.0001690333   0.0000713818  -0.0001875796
          H                0.0000279977  -0.0000615455   0.0000472787
          H               -0.0000140283   0.0000096905  -0.0000053286
          C               -0.0002767771   0.0001402181  -0.0001925275
          H                0.0000534508  -0.0000893224   0.0001599766
          H                0.0001250633  -0.0000250015   0.0000457756
          H               -0.0000453634  -0.0000147989   0.0000342016
          H                0.0000216322  -0.0000070762  -0.0000327747
          B                0.0004134699   0.0000596175   0.0001809599
          H                0.0000288893  -0.0001099310   0.0000027219
          H                0.0001426220   0.0000014331  -0.0000248492
          H                0.0000517740   0.0000414088  -0.0000409409

 THE NUCLEAR REPULSION AT THE IRC POINT IS      233.6814863252

 * * * IRC RESTART INFORMATION * * *
 COORDINATES FOR $DATA AND ENTIRE $IRC GROUP FOLLOW

 COORDINATES OF SYMMETRY UNIQUE ATOMS (ANGS)
   ATOM   CHARGE       X              Y              Z
 ------------------------------------------------------------
 C           6.0  -0.9378157009   1.7838282563   0.4266529003
 C           6.0   0.3304231459   1.2241249381  -0.2586358899
 C           6.0  -2.1063441876   1.0855795998  -0.2974096569
 H           1.0  -0.9956621317   2.8672342124   0.3583961782
 H           1.0  -0.9425134468   1.5151426410   1.4801908844
 C           6.0  -1.5967710060  -0.3530394251  -0.5748934290
 H           1.0  -2.3089168607   1.5928325139  -1.2386391737
 H           1.0  -3.0206475583   1.1024719430   0.2909985990
 C           6.0  -0.0486669897  -0.1890766617  -0.7856980516
 H           1.0   1.1736840467   1.1845774711   0.4262116764
 H           1.0   0.6154920588   1.8631494118  -1.0906335486
 H           1.0  -2.0449834024  -0.7470141666  -1.4829275655
 H           1.0   0.1998141206  -0.2848751533  -1.8396022700
 B           5.0  -1.7639963415  -1.3651726410   0.6194839288
 H           1.0   0.5166268142  -0.9588152818  -0.2617483357
 H           1.0  -1.7748879327  -0.9956949673   1.7207110203
 H           1.0  -1.8119060834  -2.5078423102   0.4143613800
 $IRC   PACE=GS2        STRIDE= 0.10000   NPOINT=??
        STOTAL=  6.496177   NEXTPT=  66
        NPRT= 0   NPUN= 0   SADDLE=.FALSE.
        GA(   1)=-9.786634760E-05,-2.752633350E-05,-9.241885294E-05
        GA(   4)=-8.451486103E-05,-2.936673640E-04, 2.884097709E-04
        GA(   7)=-1.448365592E-04, 1.267209937E-04,-1.207826858E-04
        GA(  10)= 2.332519577E-05, 1.247448078E-04,-6.161384423E-05
        GA(  13)=-5.580449939E-05, 5.365353741E-05,-5.081929787E-07
        GA(  16)=-1.690333100E-04, 7.138181293E-05,-1.875796047E-04
        GA(  19)= 2.799773390E-05,-6.154545770E-05, 4.727869507E-05
        GA(  22)=-1.402830467E-05, 9.690538275E-06,-5.328555637E-06
        GA(  25)=-2.767770667E-04, 1.402180610E-04,-1.925274505E-04
        GA(  28)= 5.345075039E-05,-8.932242617E-05, 1.599765502E-04
        GA(  31)= 1.250633399E-04,-2.500146190E-05, 4.577561346E-05
        GA(  34)=-4.536337132E-05,-1.479886513E-05, 3.420156980E-05
        GA(  37)= 2.163216714E-05,-7.076229972E-06,-3.277472117E-05
        GA(  40)= 4.134698661E-04, 5.961751519E-05, 1.809599397E-04
        GA(  43)= 2.888931207E-05,-1.099310043E-04, 2.721883407E-06
        GA(  46)= 1.426219686E-04, 1.433071093E-06,-2.484918645E-05
        GA(  49)= 5.177397819E-05, 4.140881111E-05,-4.094092902E-05
 $END   
 A GS2 RESTART ALSO REQUIRES THE UPDATED $HESS GROUP FROM THE PUNCH FILE
 ......DONE WITH THIS PORTION OF THE IRC......
 STEP CPU TIME =     0.00 TOTAL CPU TIME =         59.3 (      1.0 MIN)
 TOTAL WALL CLOCK TIME=         60.1 SECONDS, CPU UTILIZATION IS    98.74%

   1 warning(s) detected.
     A line exceeding 80 characters begins with " $irc npoint=100 sad".
 There may be a problem in your input file.

               580000  WORDS OF DYNAMIC MEMORY USED
 EXECUTION OF GAMESS TERMINATED NORMALLY Mon Nov 15 18:40:28 2021
 DDI: 263640 bytes (0.3 MB / 0 MWords) used by master data server.

 ----------------------------------------
 CPU timing information for all processes
 ========================================
 0: 54.348 + 4.989 = 59.338
 ----------------------------------------
 ddikick.x: exited gracefully.
----- accounting info -----
Files used on the master node chemcompute-node-0.novalocal were:
-rw-r--r--. 1 chemcomp chemcomp    44273 Nov 15 18:39 /scratch/307162/343201.F05
-rw-rw-r--. 1 chemcomp chemcomp  4320384 Nov 15 18:40 /scratch/307162/343201.F08
-rw-rw-r--. 1 chemcomp chemcomp 52428800 Nov 15 18:40 /scratch/307162/343201.F10
Mon Nov 15 18:40:32 UTC 2021
0.118u 0.082s 1:03.65 0.2%	0+0k 88+304io 0pf+0w
Finishing Up...
Looking for IR data...
Looking for Raman data...
vibramans not found
Looking for thermodynamics data...
Looking for UV-Vis data...
307162
