----- GAMESS execution script 'rungms' -----
This job is running on host chemcompute-node-0.novalocal
under operating system Linux at Sun Nov 14 14:05:14 UTC 2021
SLURM has assigned the following compute nodes to this run:
chemcompute-node-0
Available scratch disk space (Kbyte units) at beginning of the job is
Filesystem     1K-blocks     Used Available Use% Mounted on
/dev/sda1       62903276 18480532  44422744  30% /
GAMESS temporary binary files will be written to /scratch/306447
GAMESS supplementary output files will be written to /data/slurm/342447
Copying input file 342447.inp to your run's scratch directory...
The generated host list is
chemcompute-node-0.novalocal

 Distributed Data Interface kickoff program.
 Initiating 1 compute processes on 1 nodes to run the following command:
 /data/gamess-2019R1-ddi/gamess.00.x 342447 

          ******************************************************
          *         GAMESS VERSION = 30 JUN 2019 (R1)          *
          *             FROM IOWA STATE UNIVERSITY             *
          * M.W.SCHMIDT, K.K.BALDRIDGE, J.A.BOATZ, S.T.ELBERT, *
          *   M.S.GORDON, J.H.JENSEN, S.KOSEKI, N.MATSUNAGA,   *
          *          K.A.NGUYEN, S.J.SU, T.L.WINDUS,           *
          *       TOGETHER WITH M.DUPUIS, J.A.MONTGOMERY       *
          *         J.COMPUT.CHEM.  14, 1347-1363(1993)        *
          **************** 64 BIT LINUX VERSION ****************

  SINCE 1993, STUDENTS AND POSTDOCS WORKING AT IOWA STATE UNIVERSITY
  AND ALSO IN THEIR VARIOUS JOBS AFTER LEAVING ISU HAVE MADE IMPORTANT
  CONTRIBUTIONS TO THE CODE:
     IVANA ADAMOVIC, CHRISTINE AIKENS, YURI ALEXEEV, POOJA ARORA,
     ANDREY ASADCHEV, ROB BELL, PRADIPTA BANDYOPADHYAY, JONATHAN BENTZ,
     COLLEEN BERTONI, BRETT BODE, KURT BRORSEN, CALEB CARLIN, GALINA CHABAN,
     WEI CHEN, CHEOL HO CHOI, PAUL DAY, ALBERT DEFUSCO, NUWAN DESILVA,
     TIM DUDLEY, DMITRI FEDOROV, ALEX FINDLATER, GRAHAM FLETCHER, 
     MARK FREITAG, KURT GLAESEMANN, ANASTASIA GUNINA,
     DAN KEMP, GRANT MERRILL, NORIYUKI MINEZAWA, JONATHAN MULLIN,
     TAKESHI NAGATA, SEAN NEDD, HEATHER NETZLOFF, BOSILJKA NJEGIC, RYAN OLSON,
     MIKE PAK, BUU PHAM,
     SPENCER PRUITT, LUKE ROSKOP, JIM SHOEMAKER, LYUDMILA SLIPCHENKO,
     TONY SMITH, SAROM SOK LEANG, JIE SONG, TETSUYA TAKETSUGU, SIMON WEBB,
     PENG XU, SOOHAENG YOO, FEDERICO ZAHARIEV

  ADDITIONAL CODE HAS BEEN PROVIDED BY COLLABORATORS IN OTHER GROUPS:
     IOWA STATE UNIVERSITY:
          JOE IVANIC, AARON WEST, LAIMUTIS BYTAUTAS, KLAUS RUEDENBERG
     UNIVERSITY OF TOKYO: KIMIHIKO HIRAO, TAKAHITO NAKAJIMA,
          TAKAO TSUNEDA, MUNEAKI KAMIYA, SUSUMU YANAGISAWA,
          KIYOSHI YAGI, MAHITO CHIBA, SEIKEN TOKURA, NAOAKI KAWAKAMI
     UNIVERSITY OF AARHUS: FRANK JENSEN
     UNIVERSITY OF IOWA: VISVALDAS KAIRYS, HUI LI
     NATIONAL INST. OF STANDARDS AND TECHNOLOGY: WALT STEVENS, DAVID GARMER
     UNIVERSITY OF PISA: BENEDETTA MENNUCCI, JACOPO TOMASI
     UNIVERSITY OF MEMPHIS: HENRY KURTZ, PRAKASHAN KORAMBATH
     UNIVERSITY OF ALBERTA: TOBY ZENG, MARIUSZ KLOBUKOWSKI
     UNIVERSITY OF NEW ENGLAND: MARK SPACKMAN
     MIE UNIVERSITY: HIROAKI UMEDA
     NAT. INST. OF ADVANCED INDUSTRIAL SCIENCE AND TECHNOLOGY: KAZUO KITAURA
     MICHIGAN STATE UNIVERSITY:
          KAROL KOWALSKI, MARTA WLOCH, JEFFREY GOUR, JESSE LUTZ,
          WEI LI, JUN SHEN, J. EMILIANO DEUSTUA, PIOTR PIECUCH
     UNIVERSITY OF MINNESOTA:
          YINAN SHU
     UNIVERSITY OF SILESIA: MONIKA MUSIAL, STANISLAW KUCHARSKI
     FACULTES UNIVERSITAIRES NOTRE-DAME DE LA PAIX:
          OLIVIER QUINET, BENOIT CHAMPAGNE
     UNIVERSITY OF CALIFORNIA - SANTA BARBARA: BERNARD KIRTMAN
     INSTITUTE FOR MOLECULAR SCIENCE:
          KAZUYA ISHIMURA, MICHIO KATOUDA, AND SHIGERU NAGASE
     UNIVERSITY OF NOTRE DAME: ANNA POMOGAEVA, DAN CHIPMAN
     KYUSHU UNIVERSITY:
          HARUYUKI NAKANO,
          FENG LONG GU, JACEK KORCHOWIEC, MARCIN MAKOWSKI, AND YURIKO AOKI,
          HIROTOSHI MORI AND EISAKU MIYOSHI
     PENNSYLVANIA STATE UNIVERSITY:
          TZVETELIN IORDANOV, CHET SWALINA, JONATHAN SKONE,
          SHARON HAMMES-SCHIFFER
     WASEDA UNIVERSITY:
          MASATO KOBAYASHI, TOMOKO AKAMA, TSUGUKI TOUMA,
          TAKESHI YOSHIKAWA, YASUHIRO IKABATA, JUNJI SEINO,
          YUYA NAKAJIMA, HIROMI NAKAI
     NANJING UNIVERSITY: SHUHUA LI
     UNIVERSITY OF NEBRASKA:
          PEIFENG SU, DEJUN SI, NANDUN THELLAMUREGE, YALI WANG, HUI LI
     UNIVERSITY OF ZURICH: ROBERTO PEVERATI, KIM BALDRIDGE
     N. COPERNICUS UNIVERSITY AND JACKSON STATE UNIVERSITY:
          MARIA BARYSZ
     UNIVERSITY OF COPENHAGEN: Jimmy Kromann, CASPER STEINMANN
     TOKYO INSTITUTE OF TECHNOLOGY: HIROYA NAKATA
     NAGOYA UNIVERSITY: YOSHIO NISHIMOTO, STEPHAN IRLE
     MOSCOW STATE UNIVERSITY: VLADIMIR MIRONOV
     A.N.NESMEYANOV INSTITUTE OF ORGANOELEMENT COMPOUNDS OF RUSSIAN ACADEMY OF SCIENCES:
          IGOR S. GERASIMOV

 EXECUTION OF GAMESS BEGUN Sun Nov 14 14:05:14 2021

            ECHO OF THE FIRST FEW INPUT CARDS -
 INPUT CARD>!File created by the GAMESS Input Deck Generator Plugin for Avogadro            
 INPUT CARD> $BASIS GBASIS=STO NGAUSS=3 $END                                                
 INPUT CARD> $CONTRL SCFTYP=RHF RUNTYP=SADPOINT $END                                        
 INPUT CARD> $STATPT hssend=.t. OPTTOL=0.0005 NSTEP=50 $END                                 
 INPUT CARD> $STATPT HESS=calc ihrep=5 $END                                                 
 INPUT CARD> $FORCE nvib=2 $END                                                             
 INPUT CARD> $ZMAT DLC=.t. auto=.t. nonvdw(1)=1,6,3,4,4,5,5,6,1,2,2,3 $END                  
 INPUT CARD>!$ZMAT IFZMAT(1)=1,1,6,1,3,4 fvalue(1)=2.00,2.00 $END                           
 INPUT CARD>                                                                                
 INPUT CARD> $DATA                                                                          
 INPUT CARD>Title                                                                           
 INPUT CARD>C1                                                                              
 INPUT CARD>C     6.0     0.30420348    -0.02771368    -3.50144291                          
 INPUT CARD>C     6.0    -0.70743686     0.07201169    -2.53947210                          
 INPUT CARD>C     6.0    -0.70213658     1.14285910    -1.63809335                          
 INPUT CARD>C     6.0     1.00520432     0.98883605    -0.60791665                          
 INPUT CARD>C     6.0     1.65158617    -0.13401462    -1.13896942                          
 INPUT CARD>C     6.0     2.02805686    -0.06871574    -2.48820615                          
 INPUT CARD>C     6.0     2.60799694     1.25000930    -2.92996597                          
 INPUT CARD>C     6.0     2.42672944     2.35628223    -2.23734355                          
 INPUT CARD>C     6.0     1.60440934     2.35507226    -0.96924049                          
 INPUT CARD>O     8.0     1.42402279     3.35596752    -0.28847536                          
 INPUT CARD>H     1.0     0.55091560     0.86309713    -4.06602335                          
 INPUT CARD>H     1.0     0.33997115    -0.92910302    -4.10441399                          
 INPUT CARD>H     1.0    -1.16491199    -0.85193068    -2.20510554                          
 INPUT CARD>H     1.0    -1.44517910     1.14789665    -0.84783864                          
 INPUT CARD>H     1.0    -0.51255357     2.13170624    -2.03849244                          
 INPUT CARD>H     1.0     0.65198642     0.93430364     0.41777247                          
 INPUT CARD>H     1.0     1.48097801    -1.10338938    -0.68680978                          
 INPUT CARD>H     1.0     2.50696421    -0.93943328    -2.92546225                          
 INPUT CARD>H     1.0     3.18676496     1.24996436    -3.84719920                          
 INPUT CARD>H     1.0     2.86645365     3.29989672    -2.53252053                          
 INPUT CARD>$END                                                                            
    1000000 WORDS OF MEMORY AVAILABLE

     BASIS OPTIONS
     -------------
     GBASIS=STO          IGAUSS=       3      POLAR=NONE    
     NDFUNC=       0     NFFUNC=       0     DIFFSP=       F
     NPFUNC=       0      DIFFS=       F     BASNAM=        


     RUN TITLE
     ---------
 Title                                                                           

 THE POINT GROUP OF THE MOLECULE IS C1      
 THE ORDER OF THE PRINCIPAL AXIS IS     0

 ATOM      ATOMIC                      COORDINATES (BOHR)
           CHARGE         X                   Y                   Z
 C           6.0     0.5748612217       -0.0523712613       -6.6167676616
 C           6.0    -1.3368618190        0.1360823620       -4.7989064225
 C           6.0    -1.3268457422        2.1596905416       -3.0955475738
 C           6.0     1.8995607265        1.8686291813       -1.1487958919
 C           6.0     3.1210453064       -0.2532509101       -2.1523401122
 C           6.0     3.8324717529       -0.1298539196       -4.7020278245
 C           6.0     4.9283995934        2.3621750591       -5.5368328366
 C           6.0     4.5858536879        4.4527277644       -4.2279662499
 C           6.0     3.0318940247        4.4504412527       -1.8315989423
 O           8.0     2.6910128734        6.3418590365       -0.5451393846
 H           1.0     1.0410795264        1.6310170765       -7.6836699912
 H           1.0     0.6424523172       -1.7557501222       -7.7562177813
 H           1.0    -2.2013644609       -1.6099155457       -4.1670452446
 H           1.0    -2.7309925022        2.1692101307       -1.6021827114
 H           1.0    -0.9685858013        4.0283406799       -3.8521921396
 H           1.0     1.2320756815        1.7655778689        0.7894754935
 H           1.0     2.7986426327       -2.0851035860       -1.2978822899
 H           1.0     4.7374754179       -1.7752714829       -5.5283220399
 H           1.0     6.0221125617        2.3620901348       -7.2701523082
 H           1.0     5.4168119550        6.2359005886       -4.7857698600

          INTERNUCLEAR DISTANCES (ANGS.)
          ------------------------------

                1 C          2 C          3 C          4 C          5 C     

   1 C       0.0000000    1.3995532 *  2.4197174 *  3.1459926    2.7217680 *
   2 C       1.3995532 *  0.0000000    1.3997235 *  2.7394549 *  2.7511533 *
   3 C       2.4197174 *  1.3997235 *  0.0000000    2.0000000 *  2.7238836 *
   4 C       3.1459926    2.7394549 *  2.0000000 *  0.0000000    1.4002215 *
   5 C       2.7217680 *  2.7511533 *  2.7238836 *  1.4002215 *  0.0000000  
   6 C       2.0000001 *  2.7395909 *  3.1055694    2.3874949 *  1.4022959 *
   7 C       2.6956680 *  3.5400939    3.5549121    2.8335611 *  2.4572164 *
   8 C       3.4331473    3.8900092    3.4090026    2.5584516 *  2.8299914 *
   9 C       3.7121763    3.6086875    2.6901634 *  1.5349928 *  2.4953130 *
  10 O       4.7985888    4.5160240    3.3525917    2.4250285 *  3.5993195  
  11 H       1.0831260 *  2.1306398 *  2.7464979 *  3.4900846    3.2822785  
  12 H       1.0850605 *  2.1326831 *  3.3855211    4.0430829    3.3386166  
  13 H       2.1255880 *  1.0838607 *  2.1248177 *  3.2632559    3.0959185  
  14 H       3.3888073    2.1362153 *  1.0847304 *  2.4672336 *  3.3642248  
  15 H       2.7332052 *  2.1286855 *  1.0835496 *  2.3782953 *  3.2597751  
  16 H       4.0505160    3.3670275    2.4705726 *  1.0861744 *  2.1363401 *
  17 H       3.2348162    3.0988845    3.2736160    2.1470892 *  1.0831634 *
  18 H       2.4525785 *  3.3918113    4.0362839    3.3681631    2.1382066 *
  19 H       3.1719346    4.2734682    4.4738323    3.9141214    3.4068578  
  20 H       4.3100960    4.8158056    4.2646978    3.5368560    3.8999532  

                6 C          7 C          8 C          9 C         10 O     

   1 C       2.0000001 *  2.6956680 *  3.4331473    3.7121763    4.7985888  
   2 C       2.7395909 *  3.5400939    3.8900092    3.6086875    4.5160240  
   3 C       3.1055694    3.5549121    3.4090026    2.6901634 *  3.3525917  
   4 C       2.3874949 *  2.8335611 *  2.5584516 *  1.5349928 *  2.4250285 *
   5 C       1.4022959 *  2.4572164 *  2.8299914 *  2.4953130 *  3.5993195  
   6 C       0.0000000    1.5068238 *  2.4703212 *  2.8916228 *  4.1148667  
   7 C       1.5068238 *  0.0000000    1.3177342 *  2.4643045 *  3.5797105  
   8 C       2.4703212 *  1.3177342 *  0.0000000    1.5113892 *  2.4089165 *
   9 C       2.8916228 *  2.4643045 *  1.5113892 *  0.0000000    1.2238349 *
  10 O       4.1148667    3.5797105    2.4089165 *  1.2238349 *  0.0000000  
  11 H       2.3536628 *  2.3815774 *  3.0153522    3.5952612    4.6094021  
  12 H       2.4903870 *  3.3573501    4.3167428    4.7131650    5.8393823  
  13 H       3.2997912    4.3793169    4.8159690    4.4137706    5.2992888  
  14 H       4.0291835    4.5578413    4.2874929    3.2820727    3.6634388  
  15 H       3.3909882    3.3630269    2.9545492 *  2.3821679 *  2.8830025 *
  16 H       3.3681344    3.8901157    3.4959086    2.2021575 *  2.6380451 *
  17 H       2.1482257 *  3.4409892    3.9074197    3.4721693    4.4774745  
  18 H       1.0856768 *  2.1917771 *  3.3677419    3.9363912    5.1552818  
  19 H       2.2199963 *  1.0845687 *  2.0960030 *  3.4652214    4.4952224  
  20 H       3.4716600    2.1039965 *  1.0820791 *  2.2202012 *  2.6682371 *

               11 H         12 H         13 H         14 H         15 H     

   1 C       1.0831260 *  1.0850605 *  2.1255880 *  3.3888073    2.7332052 *
   2 C       2.1306398 *  2.1326831 *  1.0838607 *  2.1362153 *  2.1286855 *
   3 C       2.7464979 *  3.3855211    2.1248177 *  1.0847304 *  1.0835496 *
   4 C       3.4900846    4.0430829    3.2632559    2.4672336 *  2.3782953 *
   5 C       3.2822785    3.3386166    3.0959185    3.3642248    3.2597751  
   6 C       2.3536628 *  2.4903870 *  3.2997912    4.0291835    3.3909882  
   7 C       2.3815774 *  3.3573501    4.3793169    4.5578413    3.3630269  
   8 C       3.0153522    4.3167428    4.8159690    4.2874929    2.9545492 *
   9 C       3.5952612    4.7131650    4.4137706    3.2820727    2.3821679 *
  10 O       4.6094021    5.8393823    5.2992888    3.6634388    2.8830025 *
  11 H       0.0000000    1.8049800 *  3.0575153    3.7976595    2.6174830 *
  12 H       1.8049800 *  0.0000000    2.4244590 *  4.2551113    3.7899055  
  13 H       3.0575153    2.4244590 *  0.0000000    2.4331117 *  3.0586632  
  14 H       3.7976595    4.2551113    2.4331117 *  0.0000000    1.8042528 *
  15 H       2.6174830 *  3.7899055    3.0586632    1.8042528 *  0.0000000  
  16 H       4.4855000    4.9010007    3.6566709    2.4587592 *  2.9703811 *
  17 H       4.0188518    3.6072553    3.0609128    3.6954857    4.0332441  
  18 H       2.8941530 *  2.4669602 *  3.7428926    4.9287831    4.3972834  
  19 H       2.6730604 *  3.5942634    5.1040696    5.5191926    4.2111574  
  20 H       3.6947719    5.1709188    5.7962730    5.1048442    3.6092136  

               16 H         17 H         18 H         19 H         20 H     

   1 C       4.0505160    3.2348162    2.4525785 *  3.1719346    4.3100960  
   2 C       3.3670275    3.0988845    3.3918113    4.2734682    4.8158056  
   3 C       2.4705726 *  3.2736160    4.0362839    4.4738323    4.2646978  
   4 C       1.0861744 *  2.1470892 *  3.3681631    3.9141214    3.5368560  
   5 C       2.1363401 *  1.0831634 *  2.1382066 *  3.4068578    3.8999532  
   6 C       3.3681344    2.1482257 *  1.0856768 *  2.2199963 *  3.4716600  
   7 C       3.8901157    3.4409892    2.1917771 *  1.0845687 *  2.1039965 *
   8 C       3.4959086    3.9074197    3.3677419    2.0960030 *  1.0820791 *
   9 C       2.2021575 *  3.4721693    3.9363912    3.4652214    2.2202012 *
  10 O       2.6380451 *  4.4774745    5.1552818    4.4952224    2.6682371 *
  11 H       4.4855000    4.0188518    2.8941530 *  2.6730604 *  3.6947719  
  12 H       4.9010007    3.6072553    2.4669602 *  3.5942634    5.1709188  
  13 H       3.6566709    3.0609128    3.7428926    5.1040696    5.7962730  
  14 H       2.4587592 *  3.6954857    4.9287831    5.5191926    5.1048442  
  15 H       2.9703811 *  4.0332441    4.3972834    4.2111574    3.6092136  
  16 H       0.0000000    2.4616096 *  4.2578223    4.9713909    4.3822511  
  17 H       2.4616096 *  0.0000000    2.4680142 *  4.2937215    4.9714303  
  18 H       4.2578223    2.4680142 *  0.0000000    2.4708683 *  4.2726520  
  19 H       4.9713909    4.2937215    2.4708683 *  0.0000000    2.4562577 *
  20 H       4.3822511    4.9714303    4.2726520    2.4562577 *  0.0000000  

  * ... LESS THAN  3.000


     ATOMIC BASIS SET
     ----------------
 THE CONTRACTED PRIMITIVE FUNCTIONS HAVE BEEN UNNORMALIZED
 THE CONTRACTED BASIS FUNCTIONS ARE NOW NORMALIZED TO UNITY

  SHELL TYPE  PRIMITIVE        EXPONENT          CONTRACTION COEFFICIENT(S)

 C         

      1   S       1            71.6168373    0.154328967295
      1   S       2            13.0450963    0.535328142282
      1   S       3             3.5305122    0.444634542185

      2   L       4             2.9412494   -0.099967229187    0.155916274999
      2   L       5             0.6834831    0.399512826089    0.607683718598
      2   L       6             0.2222899    0.700115468880    0.391957393099

 C         

      3   S       7            71.6168373    0.154328967295
      3   S       8            13.0450963    0.535328142282
      3   S       9             3.5305122    0.444634542185

      4   L      10             2.9412494   -0.099967229187    0.155916274999
      4   L      11             0.6834831    0.399512826089    0.607683718598
      4   L      12             0.2222899    0.700115468880    0.391957393099

 C         

      5   S      13            71.6168373    0.154328967295
      5   S      14            13.0450963    0.535328142282
      5   S      15             3.5305122    0.444634542185

      6   L      16             2.9412494   -0.099967229187    0.155916274999
      6   L      17             0.6834831    0.399512826089    0.607683718598
      6   L      18             0.2222899    0.700115468880    0.391957393099

 C         

      7   S      19            71.6168373    0.154328967295
      7   S      20            13.0450963    0.535328142282
      7   S      21             3.5305122    0.444634542185

      8   L      22             2.9412494   -0.099967229187    0.155916274999
      8   L      23             0.6834831    0.399512826089    0.607683718598
      8   L      24             0.2222899    0.700115468880    0.391957393099

 C         

      9   S      25            71.6168373    0.154328967295
      9   S      26            13.0450963    0.535328142282
      9   S      27             3.5305122    0.444634542185

     10   L      28             2.9412494   -0.099967229187    0.155916274999
     10   L      29             0.6834831    0.399512826089    0.607683718598
     10   L      30             0.2222899    0.700115468880    0.391957393099

 C         

     11   S      31            71.6168373    0.154328967295
     11   S      32            13.0450963    0.535328142282
     11   S      33             3.5305122    0.444634542185

     12   L      34             2.9412494   -0.099967229187    0.155916274999
     12   L      35             0.6834831    0.399512826089    0.607683718598
     12   L      36             0.2222899    0.700115468880    0.391957393099

 C         

     13   S      37            71.6168373    0.154328967295
     13   S      38            13.0450963    0.535328142282
     13   S      39             3.5305122    0.444634542185

     14   L      40             2.9412494   -0.099967229187    0.155916274999
     14   L      41             0.6834831    0.399512826089    0.607683718598
     14   L      42             0.2222899    0.700115468880    0.391957393099

 C         

     15   S      43            71.6168373    0.154328967295
     15   S      44            13.0450963    0.535328142282
     15   S      45             3.5305122    0.444634542185

     16   L      46             2.9412494   -0.099967229187    0.155916274999
     16   L      47             0.6834831    0.399512826089    0.607683718598
     16   L      48             0.2222899    0.700115468880    0.391957393099

 C         

     17   S      49            71.6168373    0.154328967295
     17   S      50            13.0450963    0.535328142282
     17   S      51             3.5305122    0.444634542185

     18   L      52             2.9412494   -0.099967229187    0.155916274999
     18   L      53             0.6834831    0.399512826089    0.607683718598
     18   L      54             0.2222899    0.700115468880    0.391957393099

 O         

     19   S      55           130.7093214    0.154328967295
     19   S      56            23.8088661    0.535328142282
     19   S      57             6.4436083    0.444634542185

     20   L      58             5.0331513   -0.099967229187    0.155916274999
     20   L      59             1.1695961    0.399512826089    0.607683718598
     20   L      60             0.3803890    0.700115468880    0.391957393099

 H         

     21   S      61             3.4252509    0.154328967295
     21   S      62             0.6239137    0.535328142282
     21   S      63             0.1688554    0.444634542185

 H         

     22   S      64             3.4252509    0.154328967295
     22   S      65             0.6239137    0.535328142282
     22   S      66             0.1688554    0.444634542185

 H         

     23   S      67             3.4252509    0.154328967295
     23   S      68             0.6239137    0.535328142282
     23   S      69             0.1688554    0.444634542185

 H         

     24   S      70             3.4252509    0.154328967295
     24   S      71             0.6239137    0.535328142282
     24   S      72             0.1688554    0.444634542185

 H         

     25   S      73             3.4252509    0.154328967295
     25   S      74             0.6239137    0.535328142282
     25   S      75             0.1688554    0.444634542185

 H         

     26   S      76             3.4252509    0.154328967295
     26   S      77             0.6239137    0.535328142282
     26   S      78             0.1688554    0.444634542185

 H         

     27   S      79             3.4252509    0.154328967295
     27   S      80             0.6239137    0.535328142282
     27   S      81             0.1688554    0.444634542185

 H         

     28   S      82             3.4252509    0.154328967295
     28   S      83             0.6239137    0.535328142282
     28   S      84             0.1688554    0.444634542185

 H         

     29   S      85             3.4252509    0.154328967295
     29   S      86             0.6239137    0.535328142282
     29   S      87             0.1688554    0.444634542185

 H         

     30   S      88             3.4252509    0.154328967295
     30   S      89             0.6239137    0.535328142282
     30   S      90             0.1688554    0.444634542185

 TOTAL NUMBER OF BASIS SET SHELLS             =   30
 NUMBER OF CARTESIAN GAUSSIAN BASIS FUNCTIONS =   60
 NUMBER OF ELECTRONS                          =   72
 CHARGE OF MOLECULE                           =    0
 SPIN MULTIPLICITY                            =    1
 NUMBER OF OCCUPIED ORBITALS (ALPHA)          =   36
 NUMBER OF OCCUPIED ORBITALS (BETA )          =   36
 TOTAL NUMBER OF ATOMS                        =   20
 THE NUCLEAR REPULSION ENERGY IS      509.6732165611

     $CONTRL OPTIONS
     ---------------
 SCFTYP=RHF          RUNTYP=SADPOINT     EXETYP=RUN     
 MPLEVL=       0     CITYP =NONE         CCTYP =NONE         VBTYP =NONE    
 DFTTYP=NONE         TDDFT =NONE    
 MULT  =       1     ICHARG=       0     NZVAR =       0     COORD =UNIQUE  
 PP    =NONE         RELWFN=NONE         LOCAL =NONE         NUMGRD=       F
 ISPHER=      -1     NOSYM =       0     MAXIT =      30     UNITS =ANGS    
 PLTORB=       F     MOLPLT=       F     AIMPAC=       F     FRIEND=        
 NPRINT=       7     IREST =       0     GEOM  =INPUT   
 NORMF =       0     NORMP =       0     ITOL  =      20     ICUT  =       9
 INTTYP=BEST         GRDTYP=BEST         QMTTOL= 1.0E-06

     $SYSTEM OPTIONS
     ---------------
  REPLICATED MEMORY=     1000000 WORDS (ON EVERY NODE).
 DISTRIBUTED MEMDDI=           0 MILLION WORDS IN AGGREGATE,
 MEMDDI DISTRIBUTED OVER   1 PROCESSORS IS           0 WORDS/PROCESSOR.
 TOTAL MEMORY REQUESTED ON EACH PROCESSOR=     1000000 WORDS.
 TIMLIM=      525600.00 MINUTES, OR     365.0 DAYS.
 PARALL= F  BALTYP=  DLB     KDIAG=    0  COREFL= F
 MXSEQ2=     300 MXSEQ3=     150  mem10=         0

          ----------------
          PROPERTIES INPUT
          ----------------

     MOMENTS            FIELD           POTENTIAL          DENSITY
 IEMOM =       1   IEFLD =       0   IEPOT =       0   IEDEN =       0
 WHERE =COMASS     WHERE =NUCLEI     WHERE =NUCLEI     WHERE =NUCLEI  
 OUTPUT=BOTH       OUTPUT=BOTH       OUTPUT=BOTH       OUTPUT=BOTH    
 IEMINT=       0   IEFINT=       0                     IEDINT=       0
                                                       MORB  =       0
          EXTRAPOLATION IN EFFECT
          SOSCF IN EFFECT
 ORBITAL PRINTING OPTION: NPREO=     1    60     2     1

     -------------------------------
     INTEGRAL TRANSFORMATION OPTIONS
     -------------------------------
     NWORD  =            0
     CUTOFF = 1.0E-09     MPTRAN =       0
     DIRTRF =       F     AOINTS =DUP     

          ----------------------
          INTEGRAL INPUT OPTIONS
          ----------------------
 NOPK  =       1 NORDER=       0 SCHWRZ=       T

     ------------------------------------------
     THE POINT GROUP IS C1 , NAXIS= 0, ORDER= 1
     ------------------------------------------

     DIMENSIONS OF THE SYMMETRY SUBSPACES ARE
 A   =   60

 ..... DONE SETTING UP THE RUN .....
 STEP CPU TIME =     0.03 TOTAL CPU TIME =          0.0 (      0.0 MIN)
 TOTAL WALL CLOCK TIME=          0.1 SECONDS, CPU UTILIZATION IS    50.00%


          -----------------------------
          STATIONARY POINT LOCATION RUN
          -----------------------------

 OBTAINING INITIAL HESSIAN, HESS=CALC    

     ---------------------------------
     HESSIAN MATRIX CONTROL PARAMETERS
     ---------------------------------
     METHOD=ANALYTIC   NVIB  =       2   VIBSIZ= 0.01000
     RDHESS=       F   PURIFY=       F   PRTIFC=       F
     VIBANL=       F   DECOMP=       F   PROJCT=       F
     SCLFAC= 1.00000   PRTSCN=       F   NPRT  =       0
     PULCOR=       F   NPUN  =       0   REDOVB=       T
     HSSTYP=GENERAL 
 Old integral subroutine is used

     ------------------------------
     CPHF RESPONSE SOLUTION OPTIONS
     ------------------------------
     POLAR  =       F     NWORD  =       0
     CPHF   =AO      

          ********************
          1 ELECTRON INTEGRALS
          ********************
 ...... END OF ONE-ELECTRON INTEGRALS ......
 STEP CPU TIME =     0.03 TOTAL CPU TIME =          0.1 (      0.0 MIN)
 TOTAL WALL CLOCK TIME=          0.1 SECONDS, CPU UTILIZATION IS    60.00%

          -------------
          GUESS OPTIONS
          -------------
          GUESS =HUCKEL            NORB  =       0          NORDER=       0
          MIX   =       F          PRTMO =       F          PUNMO =       F
          TOLZ  = 1.0E-08          TOLE  = 1.0E-05
          SYMDEN=       F          PURIFY=       F

 INITIAL GUESS ORBITALS GENERATED BY HUCKEL   ROUTINE.
 HUCKEL GUESS REQUIRES     53820 WORDS.

 SYMMETRIES FOR INITIAL GUESS ORBITALS FOLLOW.   BOTH SET(S).
    36 ORBITALS ARE OCCUPIED (   10 CORE ORBITALS).
    11=A       12=A       13=A       14=A       15=A       16=A       17=A   
    18=A       19=A       20=A       21=A       22=A       23=A       24=A   
    25=A       26=A       27=A       28=A       29=A       30=A       31=A   
    32=A       33=A       34=A       35=A       36=A       37=A       38=A   
    39=A       40=A       41=A       42=A       43=A       44=A       45=A   
    46=A   
 ...... END OF INITIAL ORBITAL SELECTION ......
 STEP CPU TIME =     0.02 TOTAL CPU TIME =          0.1 (      0.0 MIN)
 TOTAL WALL CLOCK TIME=          0.1 SECONDS, CPU UTILIZATION IS    61.54%

                    ----------------------
                    AO INTEGRAL TECHNOLOGY
                    ----------------------
     S,P,L SHELL ROTATED AXIS INTEGRALS, REPROGRAMMED BY
        KAZUYA ISHIMURA (IMS) AND JOSE SIERRA (SYNSTAR).
     S,P,D,L SHELL ROTATED AXIS INTEGRALS PROGRAMMED BY
        KAZUYA ISHIMURA (INSTITUTE FOR MOLECULAR SCIENCE).
     S,P,D,F,G SHELL TO TOTAL QUARTET ANGULAR MOMENTUM SUM 5,
        ERIC PROGRAM BY GRAHAM FLETCHER (ELORET AND NASA ADVANCED
        SUPERCOMPUTING DIVISION, AMES RESEARCH CENTER).
     S,P,D,F,G,L SHELL GENERAL RYS QUADRATURE PROGRAMMED BY
        MICHEL DUPUIS (PACIFIC NORTHWEST NATIONAL LABORATORY).

          --------------------
          2 ELECTRON INTEGRALS
          --------------------

 THE -PK- OPTION IS OFF, THE INTEGRALS ARE NOT IN SUPERMATRIX FORM.
 STORING   15000 INTEGRALS/RECORD ON DISK, USING 12 BYTES/INTEGRAL.
 TWO ELECTRON INTEGRAL EVALUATION REQUIRES   89821 WORDS OF MEMORY.
 SCHWARZ INEQUALITY OVERHEAD:      1797 INTEGRALS, T=        0.00
 II,JST,KST,LST =  1  1  1  1 NREC =         1 INTLOC =    1
 II,JST,KST,LST =  2  1  1  1 NREC =         1 INTLOC =    2
 II,JST,KST,LST =  3  1  1  1 NREC =         1 INTLOC =   34
 II,JST,KST,LST =  4  1  1  1 NREC =         1 INTLOC =  144
 II,JST,KST,LST =  5  1  1  1 NREC =         1 INTLOC = 1366
 II,JST,KST,LST =  6  1  1  1 NREC =         1 INTLOC = 1959
 II,JST,KST,LST =  7  1  1  1 NREC =         1 INTLOC = 6857
 II,JST,KST,LST =  8  1  1  1 NREC =         1 INTLOC = 8477
 II,JST,KST,LST =  9  1  1  1 NREC =         2 INTLOC = 5893
 II,JST,KST,LST = 10  1  1  1 NREC =         2 INTLOC = 9691
 II,JST,KST,LST = 11  1  1  1 NREC =         4 INTLOC = 5057
 II,JST,KST,LST = 12  1  1  1 NREC =         4 INTLOC =12156
 II,JST,KST,LST = 13  1  1  1 NREC =         7 INTLOC =12248
 II,JST,KST,LST = 14  1  1  1 NREC =         8 INTLOC = 8604
 II,JST,KST,LST = 15  1  1  1 NREC =        13 INTLOC = 6022
 II,JST,KST,LST = 16  1  1  1 NREC =        14 INTLOC = 8539
 II,JST,KST,LST = 17  1  1  1 NREC =        21 INTLOC =12586
 II,JST,KST,LST = 18  1  1  1 NREC =        23 INTLOC = 8584
 II,JST,KST,LST = 19  1  1  1 NREC =        34 INTLOC = 1480
 II,JST,KST,LST = 20  1  1  1 NREC =        35 INTLOC =12230
 II,JST,KST,LST = 21  1  1  1 NREC =        48 INTLOC = 1713
 II,JST,KST,LST = 22  1  1  1 NREC =        52 INTLOC = 2530
 II,JST,KST,LST = 23  1  1  1 NREC =        56 INTLOC = 2256
 II,JST,KST,LST = 24  1  1  1 NREC =        60 INTLOC = 6585
 II,JST,KST,LST = 25  1  1  1 NREC =        65 INTLOC = 3122
 II,JST,KST,LST = 26  1  1  1 NREC =        70 INTLOC = 6567
 II,JST,KST,LST = 27  1  1  1 NREC =        75 INTLOC =13493
 II,JST,KST,LST = 28  1  1  1 NREC =        81 INTLOC = 8610
 II,JST,KST,LST = 29  1  1  1 NREC =        87 INTLOC = 6822
 II,JST,KST,LST = 30  1  1  1 NREC =        93 INTLOC = 9785
 SCHWARZ INEQUALITY TEST SKIPPED       24229 INTEGRAL BLOCKS.
 TOTAL NUMBER OF NONZERO TWO-ELECTRON INTEGRALS =             1487608
        100 INTEGRAL RECORDS WERE STORED ON DISK FILE  8.
  ...... END OF TWO-ELECTRON INTEGRALS .....
 STEP CPU TIME =     0.29 TOTAL CPU TIME =          0.4 (      0.0 MIN)
 TOTAL WALL CLOCK TIME=          0.4 SECONDS, CPU UTILIZATION IS    90.24%

          --------------------------
                 RHF SCF CALCULATION
          --------------------------

     NUCLEAR ENERGY =       509.6732165611
     MAXIT =   30     NPUNCH=    2
     EXTRAP=T  DAMP=F  SHIFT=F  RSTRCT=F  DIIS=F  DEM=F  SOSCF=T
     DENSITY MATRIX CONV=  1.00E-05
     SOSCF WILL OPTIMIZE     864 ORBITAL ROTATIONS, SOGTOL=   0.250
     MEMORY REQUIRED FOR RHF ITERS=     59496 WORDS.

 ITER EX DEM     TOTAL ENERGY        E CHANGE  DENSITY CHANGE     ORB. GRAD
   1  0  0     -415.5233189826  -415.5233189826   0.524937157   0.000000000
          ---------------START SECOND ORDER SCF---------------
   2  1  0     -416.0288473230    -0.5055283404   0.279821054   0.064719208
   3  2  0     -416.0582523595    -0.0294050365   0.127250646   0.049268375
   4  3  0     -416.0921771821    -0.0339248226   0.018153909   0.007298060
   5  4  0     -416.0930434428    -0.0008662607   0.004123265   0.002938912
   6  5  0     -416.0931515163    -0.0001080735   0.001875519   0.000763345
   7  6  0     -416.0931640535    -0.0000125372   0.000597730   0.000261630
   8  7  0     -416.0931659076    -0.0000018542   0.000203295   0.000073019
   9  8  0     -416.0931660851    -0.0000001775   0.000106050   0.000023570
  10  9  0     -416.0931661169    -0.0000000318   0.000051817   0.000011427
  11 10  0     -416.0931661220    -0.0000000051   0.000028008   0.000003473
  12 11  0     -416.0931661229    -0.0000000010   0.000009844   0.000001377
  13 12  0     -416.0931661231    -0.0000000001   0.000005294   0.000000513

          -----------------
          DENSITY CONVERGED
          -----------------
     TIME TO FORM FOCK OPERATORS=       0.2 SECONDS (       0.0 SEC/ITER)
     TIME TO SOLVE SCF EQUATIONS=       0.0 SECONDS (       0.0 SEC/ITER)

 FINAL RHF ENERGY IS     -416.0931661231 AFTER  13 ITERATIONS

          ------------
          EIGENVECTORS
          ------------

                      1          2          3          4          5
                  -20.2612   -11.1181   -11.0543   -11.0493   -11.0456
                     A          A          A          A          A   
    1  C  1  S   -0.000000   0.000023  -0.030494  -0.005699  -0.084356
    2  C  1  S    0.000003  -0.000004  -0.003830   0.000016  -0.002960
    3  C  1  X    0.000001   0.000007  -0.002096  -0.000197   0.000105
    4  C  1  Y   -0.000002   0.000013   0.000045  -0.000015  -0.000121
    5  C  1  Z   -0.000000  -0.000000  -0.001302  -0.000237  -0.000040
    6  C  2  S   -0.000000   0.000015  -0.000572   0.000062   0.003855
    7  C  2  S    0.000010  -0.000030   0.000351   0.000059  -0.006051
    8  C  2  X   -0.000005   0.000050   0.000201   0.000048   0.000339
    9  C  2  Y    0.000002  -0.000007  -0.000016   0.000037  -0.003414
   10  C  2  Z    0.000008  -0.000037  -0.000137   0.000005  -0.003083
   11  C  3  S   -0.000005  -0.000222  -0.000699   0.000653   0.958747
   12  C  3  S   -0.000000   0.000304  -0.000021   0.000046   0.035530
   13  C  3  X    0.000027  -0.000218  -0.000070   0.000002  -0.000480
   14  C  3  Y    0.000021   0.000037   0.000014   0.000022  -0.000263
   15  C  3  Z    0.000030  -0.000154   0.000030   0.000016  -0.000829
   16  C  4  S   -0.000024  -0.001607  -0.004049  -0.005413  -0.240148
   17  C  4  S    0.000270  -0.005398  -0.000068  -0.000229  -0.011269
   18  C  4  X   -0.000106  -0.001566  -0.000016  -0.000094   0.001674
   19  C  4  Y    0.000307  -0.003641  -0.000035  -0.000025   0.000043
   20  C  4  Z    0.000351   0.000742   0.000187   0.000147   0.001175
   21  C  5  S    0.000004  -0.000277   0.003951  -0.001148  -0.002008
   22  C  5  S    0.000033   0.000070  -0.006881  -0.000015   0.001794
   23  C  5  X   -0.000057  -0.000023  -0.001344  -0.000103  -0.000552
   24  C  5  Y   -0.000030  -0.000014  -0.000143  -0.000072   0.000966
   25  C  5  Z    0.000031  -0.000009   0.004362   0.000069   0.000471
   26  C  6  S    0.000003  -0.000254   0.991336   0.024237  -0.003040
   27  C  6  S    0.000007  -0.000064   0.036233  -0.004858   0.000113
   28  C  6  X    0.000019  -0.000008   0.001041  -0.001602  -0.000155
   29  C  6  Y   -0.000031  -0.000102   0.000341  -0.003678  -0.000001
   30  C  6  Z   -0.000019  -0.000039   0.001359   0.001066  -0.000098
   31  C  7  S    0.000005  -0.000272  -0.023441   0.991729  -0.002391
   32  C  7  S    0.000054   0.000111  -0.006871   0.035857  -0.000057
   33  C  7  X    0.000034  -0.000049   0.001559  -0.000296  -0.000026
   34  C  7  Y    0.000061  -0.000054   0.003754   0.001425  -0.000013
   35  C  7  Z   -0.000031   0.000053  -0.001453   0.000827   0.000039
   36  C  8  S   -0.000025  -0.001005  -0.001146   0.019706   0.000524
   37  C  8  S    0.000270  -0.005689   0.000345  -0.007398   0.000039
   38  C  8  X    0.000006   0.002197  -0.000011  -0.000636  -0.000052
   39  C  8  Y    0.000479  -0.000190  -0.000185   0.003827   0.000000
   40  C  8  Z    0.000185  -0.003486   0.000017   0.002411  -0.000014
   41  C  9  S    0.000548   0.992564   0.000267   0.000342  -0.000395
   42  C  9  S   -0.007195   0.032729  -0.000008   0.000149   0.001519
   43  C  9  X    0.000944  -0.000070  -0.000036  -0.000013  -0.000407
   44  C  9  Y   -0.005224   0.000414   0.000076   0.000136  -0.000958
   45  C  9  Z   -0.003542   0.000071   0.000116   0.000068   0.000293
   46  O 10  S    0.994267   0.000162   0.000005   0.000013  -0.000003
   47  O 10  S    0.025993  -0.005790  -0.000052  -0.000115  -0.000031
   48  O 10  X    0.000822  -0.000254  -0.000004  -0.000019  -0.000013
   49  O 10  Y   -0.004590   0.001401   0.000031   0.000041   0.000039
   50  O 10  Z   -0.003122   0.000976   0.000013   0.000046  -0.000032
   51  H 11  S   -0.000002   0.000006   0.000363  -0.000951   0.000558
   52  H 12  S   -0.000002   0.000002   0.000358  -0.000012   0.000490
   53  H 13  S   -0.000002   0.000006  -0.000001   0.000001   0.000038
   54  H 14  S   -0.000006  -0.000035  -0.000017  -0.000014  -0.006697
   55  H 15  S    0.000080  -0.001059   0.000005  -0.000042  -0.006737
   56  H 16  S   -0.000179  -0.000014  -0.000090  -0.000023   0.001819
   57  H 17  S   -0.000020  -0.000052   0.000080  -0.000080  -0.000014
   58  H 18  S   -0.000016  -0.000026  -0.006924  -0.000128   0.000018
   59  H 19  S   -0.000021  -0.000038   0.000241  -0.006826   0.000025
   60  H 20  S   -0.000192   0.000012  -0.000037   0.000011   0.000014

                      6          7          8          9         10
                  -11.0452   -11.0444   -11.0258   -11.0184   -11.0121
                     A          A          A          A          A   
    1  C  1  S    0.987957   0.016886  -0.000217   0.000974  -0.003465
    2  C  1  S    0.035881   0.000648   0.000047   0.000289  -0.007235
    3  C  1  X   -0.001611  -0.000072   0.000019  -0.000058   0.003257
    4  C  1  Y    0.000288  -0.000048   0.000027   0.000045  -0.000321
    5  C  1  Z   -0.000360  -0.000072  -0.000043  -0.000061  -0.003290
    6  C  2  S    0.004584   0.000519   0.000105  -0.018461   0.991933
    7  C  2  S   -0.007342  -0.001673   0.000028  -0.001166   0.036727
    8  C  2  X   -0.003180  -0.000008   0.000007  -0.000581   0.002260
    9  C  2  Y    0.000057  -0.000782  -0.000004   0.000115   0.000074
   10  C  2  Z    0.002942  -0.000576   0.000006  -0.000388   0.001172
   11  C  3  S    0.077745   0.243281  -0.000271   0.000891  -0.003416
   12  C  3  S    0.003041   0.006217   0.000087   0.000298  -0.007232
   13  C  3  X   -0.000129  -0.002351  -0.000012  -0.000058  -0.000108
   14  C  3  Y   -0.000031   0.000185   0.000080   0.000021   0.003586
   15  C  3  Z    0.000023  -0.001526   0.000002  -0.000039   0.002941
   16  C  4  S   -0.037092   0.961903   0.001492  -0.004609   0.000545
   17  C  4  S   -0.001528   0.034103   0.000248  -0.007296   0.000019
   18  C  4  X    0.000124   0.002096   0.000022  -0.002039  -0.000024
   19  C  4  Y   -0.000002  -0.000689   0.000010   0.003718   0.000131
   20  C  4  Z    0.000141   0.000662   0.000061   0.001797   0.000092
   21  C  5  S   -0.001015   0.005025  -0.004280   0.991918   0.018700
   22  C  5  S    0.000148  -0.006689  -0.000268   0.036682   0.000198
   23  C  5  X   -0.000099   0.001959  -0.000071  -0.001855   0.000551
   24  C  5  Y    0.000144  -0.003519  -0.000200   0.000780   0.000030
   25  C  5  Z    0.000106  -0.001776   0.000068  -0.001425   0.000283
   26  C  6  S    0.031291   0.004835   0.000710  -0.003140   0.000405
   27  C  6  S   -0.001560   0.000170   0.000406  -0.007218   0.000020
   28  C  6  X    0.002210   0.000168   0.000119   0.001333   0.000089
   29  C  6  Y   -0.000030  -0.000183   0.000070   0.000220  -0.000021
   30  C  6  Z    0.001266  -0.000004  -0.000080  -0.004395  -0.000129
   31  C  7  S    0.004719   0.005150  -0.019188   0.001213  -0.000076
   32  C  7  S    0.000131   0.000116  -0.008919   0.000147   0.000008
   33  C  7  X   -0.000012   0.000115   0.000640  -0.000021  -0.000041
   34  C  7  Y    0.000043   0.000007  -0.003946  -0.000053   0.000021
   35  C  7  Z   -0.000067  -0.000132  -0.002483  -0.000173  -0.000003
   36  C  8  S    0.000343  -0.001221   0.991968   0.004375  -0.000031
   37  C  8  S    0.000019   0.000065   0.036541   0.000092  -0.000014
   38  C  8  X   -0.000020   0.000021   0.000232   0.000014  -0.000001
   39  C  8  Y   -0.000001   0.000040  -0.001687   0.000166   0.000004
   40  C  8  Z   -0.000016   0.000019  -0.000849  -0.000109  -0.000001
   41  C  9  S   -0.000095   0.002579   0.001994   0.000339  -0.000013
   42  C  9  S    0.000236  -0.005469  -0.005878   0.000129  -0.000010
   43  C  9  X   -0.000066   0.001462  -0.002289  -0.000141  -0.000015
   44  C  9  Y   -0.000146   0.003632   0.000028   0.000067   0.000002
   45  C  9  Z    0.000045  -0.001109   0.003507   0.000053  -0.000048
   46  O 10  S    0.000001  -0.000022  -0.000022   0.000009   0.000000
   47  O 10  S   -0.000010   0.000244   0.000249  -0.000084   0.000005
   48  O 10  X   -0.000003  -0.000069   0.000118   0.000024   0.000007
   49  O 10  Y    0.000011  -0.000211  -0.000017   0.000039  -0.000004
   50  O 10  Z   -0.000004   0.000055  -0.000187   0.000023   0.000001
   51  H 11  S   -0.006912  -0.000132  -0.000105  -0.000057   0.000014
   52  H 12  S   -0.006894  -0.000160  -0.000010  -0.000031   0.000107
   53  H 13  S    0.000051   0.000009  -0.000004   0.000141  -0.007002
   54  H 14  S   -0.000652  -0.001563  -0.000018  -0.000040   0.000105
   55  H 15  S   -0.000597  -0.001565  -0.000210  -0.000044   0.000020
   56  H 16  S    0.000252  -0.006695  -0.000099   0.000120  -0.000032
   57  H 17  S   -0.000001   0.000068  -0.000031  -0.006920  -0.000118
   58  H 18  S   -0.000085  -0.000155  -0.000094   0.000106  -0.000042
   59  H 19  S    0.000012  -0.000092   0.000266  -0.000106  -0.000003
   60  H 20  S   -0.000002  -0.000067  -0.006868  -0.000089   0.000001

                     11         12         13         14         15
                   -1.3129    -1.0917    -1.0182    -0.9718    -0.9334
                     A          A          A          A          A   
    1  C  1  S   -0.000703  -0.056423  -0.102741   0.069566  -0.076332
    2  C  1  S    0.001711   0.149977   0.276487  -0.191482   0.219008
    3  C  1  X    0.000069  -0.003315  -0.065764   0.032123   0.025566
    4  C  1  Y    0.000246   0.007937   0.009279  -0.010037  -0.009188
    5  C  1  Z    0.000464   0.028034   0.048355  -0.011643  -0.003587
    6  C  2  S   -0.001044  -0.058414  -0.147816   0.066225   0.012174
    7  C  2  S    0.002308   0.145763   0.383137  -0.175419  -0.032722
    8  C  2  X    0.000572   0.030228   0.048817  -0.025719   0.039399
    9  C  2  Y    0.000670   0.015530   0.037709  -0.003841  -0.051013
   10  C  2  Z    0.000605   0.003907   0.009773   0.023323  -0.073430
   11  C  3  S   -0.003134  -0.051104  -0.114857   0.018425   0.091593
   12  C  3  S    0.007674   0.135737   0.310155  -0.047020  -0.260646
   13  C  3  X    0.002302   0.016165  -0.002465   0.021294  -0.002286
   14  C  3  Y    0.001159  -0.019832  -0.054827   0.022217  -0.004546
   15  C  3  Z    0.000651  -0.014708  -0.055052   0.042458  -0.005283
   16  C  4  S   -0.021439  -0.087681  -0.008638  -0.125938   0.084106
   17  C  4  S    0.053622   0.230016   0.026263   0.348106  -0.241691
   18  C  4  X    0.011113   0.031662  -0.031590   0.045210   0.005910
   19  C  4  Y    0.024174  -0.027792  -0.007062  -0.058601  -0.056206
   20  C  4  Z   -0.005882  -0.038397  -0.001675  -0.011824  -0.001018
   21  C  5  S   -0.005571  -0.108609   0.008435  -0.128282  -0.047926
   22  C  5  S    0.012749   0.273118  -0.021868   0.342554   0.130762
   23  C  5  X   -0.001696  -0.012159  -0.020762  -0.039476   0.043978
   24  C  5  Y    0.005625   0.047071  -0.005685   0.052399  -0.055671
   25  C  5  Z    0.000524  -0.044566   0.013884   0.017333  -0.104303
   26  C  6  S   -0.003225  -0.112731   0.031042  -0.020124  -0.131095
   27  C  6  S    0.007685   0.297004  -0.082814   0.051515   0.372701
   28  C  6  X   -0.000110  -0.005899  -0.038312  -0.027931   0.000189
   29  C  6  Y    0.002301   0.039604  -0.037869  -0.044229  -0.022159
   30  C  6  Z    0.001791   0.041009  -0.004890   0.096561   0.014991
   31  C  7  S   -0.006025  -0.103318   0.093463   0.105313  -0.008339
   32  C  7  S    0.014334   0.263304  -0.245728  -0.283104   0.026816
   33  C  7  X   -0.001986  -0.031400   0.008740   0.002694  -0.014899
   34  C  7  Y    0.004568   0.001715  -0.042071  -0.076903  -0.126782
   35  C  7  Z    0.004678   0.045581  -0.039062  -0.019426  -0.026497
   36  C  8  S   -0.021743  -0.081432   0.091462   0.105534   0.086809
   37  C  8  S    0.052869   0.204540  -0.237297  -0.279872  -0.235743
   38  C  8  X   -0.015291  -0.006768  -0.004550  -0.017159   0.019707
   39  C  8  Y   -0.000780  -0.061393   0.054987   0.050966   0.004321
   40  C  8  Z    0.023062  -0.014002   0.022265   0.051626  -0.025995
   41  C  9  S   -0.127581  -0.035758   0.022140  -0.008439   0.070170
   42  C  9  S    0.295700   0.099325  -0.063441   0.023614  -0.207172
   43  C  9  X   -0.023512   0.010455  -0.034840  -0.051264  -0.009036
   44  C  9  Y    0.125714  -0.076315   0.015860  -0.068987   0.100834
   45  C  9  Z    0.085106  -0.049807   0.048427   0.058603   0.069168
   46  O 10  S   -0.214497   0.038237  -0.015263   0.006391  -0.049563
   47  O 10  S    0.749419  -0.142702   0.058506  -0.024985   0.198099
   48  O 10  X    0.023973  -0.001771  -0.007203  -0.012815   0.000343
   49  O 10  Y   -0.135749   0.004946  -0.002994  -0.015811   0.020930
   50  O 10  Z   -0.092556   0.004256   0.005954   0.016251   0.013370
   51  H 11  S    0.000422   0.037078   0.059983  -0.057593   0.064814
   52  H 12  S    0.000185   0.028696   0.060138  -0.048130   0.070685
   53  H 13  S    0.000306   0.028996   0.087659  -0.042346  -0.008031
   54  H 14  S    0.001284   0.025215   0.068214  -0.006576  -0.078882
   55  H 15  S    0.003456   0.031873   0.071636  -0.011798  -0.082291
   56  H 16  S    0.008816   0.040034   0.010972   0.089826  -0.070817
   57  H 17  S    0.001521   0.051064  -0.000181   0.088614   0.040567
   58  H 18  S    0.000820   0.055683  -0.016066   0.008972   0.119131
   59  H 19  S    0.001621   0.049412  -0.055413  -0.078124   0.014407
   60  H 20  S    0.008802   0.035058  -0.052353  -0.075071  -0.064686

                     16         17         18         19         20
                   -0.8550    -0.7742    -0.7531    -0.7105    -0.6556
                     A          A          A          A          A   
    1  C  1  S   -0.132738   0.035948  -0.009408   0.068970   0.004020
    2  C  1  S    0.385018  -0.111695   0.033983  -0.220755  -0.011406
    3  C  1  X   -0.040335  -0.056308   0.065514  -0.098931   0.022062
    4  C  1  Y   -0.014700  -0.024845   0.007020  -0.047192  -0.140090
    5  C  1  Z   -0.036975   0.074399  -0.032794   0.163430  -0.037936
    6  C  2  S   -0.000760  -0.055337   0.046547  -0.115118  -0.004077
    7  C  2  S    0.002076   0.165215  -0.140856   0.355052   0.015593
    8  C  2  X    0.080613  -0.020319   0.008317  -0.048761  -0.064434
    9  C  2  Y   -0.093868  -0.027163   0.051845  -0.130287  -0.114451
   10  C  2  Z   -0.150286   0.028921  -0.000951   0.055018   0.040575
   11  C  3  S    0.132130   0.014090  -0.036901   0.067771   0.001452
   12  C  3  S   -0.383386  -0.048091   0.114158  -0.217292  -0.003252
   13  C  3  X    0.053546  -0.021154  -0.004563   0.017655  -0.066901
   14  C  3  Y   -0.003721  -0.073891   0.090660  -0.179027  -0.029869
   15  C  3  Z    0.006260  -0.051156   0.006907  -0.062136   0.113402
   16  C  4  S   -0.062515   0.081796   0.041384  -0.015600  -0.028200
   17  C  4  S    0.180620  -0.253419  -0.121200   0.049808   0.097393
   18  C  4  X    0.059412   0.037829   0.008083   0.053940  -0.098610
   19  C  4  Y    0.029694  -0.113684   0.182970   0.112490   0.039212
   20  C  4  Z    0.017479  -0.077972  -0.071077   0.000519   0.201264
   21  C  5  S    0.006542  -0.095482   0.057776   0.047488   0.026673
   22  C  5  S   -0.018816   0.283221  -0.175346  -0.145302  -0.080790
   23  C  5  X   -0.036936   0.013082   0.082424   0.050922   0.002007
   24  C  5  Y    0.046569  -0.092295  -0.004397   0.072340  -0.149536
   25  C  5  Z    0.071946  -0.045044  -0.150209  -0.044455   0.066336
   26  C  6  S    0.071512   0.007697  -0.084261  -0.031723  -0.032986
   27  C  6  S   -0.206927  -0.028994   0.259970   0.098724   0.110883
   28  C  6  X   -0.061792  -0.066083   0.017620   0.071778   0.095727
   29  C  6  Y   -0.008702  -0.087925  -0.060057   0.046803  -0.241175
   30  C  6  Z   -0.012769   0.167399  -0.019247  -0.025697  -0.140172
   31  C  7  S    0.052009   0.081138   0.082626  -0.019664   0.026250
   32  C  7  S   -0.151061  -0.246695  -0.244742   0.062686  -0.080050
   33  C  7  X   -0.008843  -0.012323  -0.078123  -0.004404   0.104053
   34  C  7  Y    0.065986   0.109178  -0.130094  -0.104556  -0.012769
   35  C  7  Z    0.016237   0.089409   0.068944   0.019093  -0.128580
   36  C  8  S   -0.036955  -0.088604  -0.001482   0.039498  -0.032413
   37  C  8  S    0.106529   0.263460   0.016028  -0.118980   0.113907
   38  C  8  X   -0.031072  -0.005939  -0.116999  -0.039512   0.072754
   39  C  8  Y    0.030179   0.100753   0.068045  -0.071220   0.211864
   40  C  8  Z    0.056987   0.061152   0.194271   0.068294  -0.004091
   41  C  9  S   -0.062140  -0.000513  -0.107367  -0.051609  -0.014040
   42  C  9  S    0.189393   0.001187   0.343322   0.167570   0.044896
   43  C  9  X    0.020484   0.128607   0.031126  -0.014620   0.010104
   44  C  9  Y   -0.080741   0.111140  -0.055690  -0.091819   0.049967
   45  C  9  Z   -0.039462  -0.134559  -0.112098   0.037800   0.029399
   46  O 10  S    0.036102  -0.001261   0.058953   0.023325   0.029164
   47  O 10  S   -0.149811   0.005712  -0.258961  -0.104723  -0.139343
   48  O 10  X    0.009573   0.063471   0.024033  -0.004524   0.023923
   49  O 10  Y   -0.031664   0.057991  -0.073535  -0.078112  -0.065486
   50  O 10  Z   -0.016280  -0.065722  -0.088657   0.006304  -0.047767
   51  H 11  S    0.122390  -0.091285   0.032269  -0.183331  -0.074232
   52  H 12  S    0.143525  -0.053856   0.022819  -0.121304   0.100457
   53  H 13  S    0.000496   0.085895  -0.083321   0.236775   0.105181
   54  H 14  S   -0.142617  -0.032267   0.045644  -0.121641   0.094369
   55  H 15  S   -0.119943  -0.049989   0.100631  -0.174442  -0.063076
   56  H 16  S    0.054685  -0.139333  -0.095837   0.001009   0.195692
   57  H 17  S   -0.009144   0.143509  -0.110934  -0.115463   0.078716
   58  H 18  S   -0.075633  -0.027038   0.138639   0.039375   0.260308
   59  H 19  S   -0.060629  -0.142227  -0.155824   0.013159   0.080786
   60  H 20  S    0.034301   0.139455  -0.022086  -0.111476   0.195622

                     21         22         23         24         25
                   -0.6060    -0.5917    -0.5868    -0.5546    -0.5419
                     A          A          A          A          A   
    1  C  1  S   -0.015522  -0.007150  -0.001086   0.000319   0.004291
    2  C  1  S    0.055526   0.020213  -0.001523  -0.002840  -0.022791
    3  C  1  X    0.050561  -0.031978  -0.104023  -0.054563  -0.144860
    4  C  1  Y   -0.243722  -0.094063  -0.087598  -0.237989  -0.160088
    5  C  1  Z   -0.147482  -0.098931   0.107769   0.074515   0.130663
    6  C  2  S    0.027094   0.005960  -0.004761   0.012581  -0.007377
    7  C  2  S   -0.083025  -0.016318   0.014694  -0.041399   0.023905
    8  C  2  X   -0.129527  -0.081252   0.079828   0.061759   0.089001
    9  C  2  Y   -0.208546  -0.077474  -0.030358  -0.124849  -0.068022
   10  C  2  Z    0.054217  -0.024728  -0.118564  -0.067394  -0.166818
   11  C  3  S   -0.014167  -0.009102   0.004541  -0.004195   0.001653
   12  C  3  S    0.051133   0.029061  -0.011903   0.023736  -0.001145
   13  C  3  X   -0.168070  -0.084092   0.084381   0.090408   0.105024
   14  C  3  Y    0.005992   0.084948   0.163567   0.166935   0.242722
   15  C  3  Z    0.251766   0.037752  -0.056714   0.024515  -0.079326
   16  C  4  S    0.001464   0.054913   0.012191  -0.020984  -0.006496
   17  C  4  S   -0.007501  -0.185646  -0.036640   0.072031   0.021586
   18  C  4  X    0.001491   0.090993  -0.036478   0.062503  -0.069205
   19  C  4  Y   -0.012635   0.074158   0.242643  -0.069341  -0.101505
   20  C  4  Z   -0.011943  -0.096641   0.018671  -0.241140   0.116847
   21  C  5  S    0.005235  -0.055769   0.000235  -0.009398   0.017435
   22  C  5  S   -0.020173   0.190097   0.000692   0.026126  -0.056487
   23  C  5  X    0.025459   0.025702   0.098907  -0.059123  -0.042767
   24  C  5  Y    0.081721  -0.199188  -0.150957   0.256560  -0.084877
   25  C  5  Z   -0.062299   0.099903  -0.156804  -0.095773   0.183327
   26  C  6  S   -0.003886   0.056287  -0.007236  -0.000610   0.005313
   27  C  6  S    0.011917  -0.196116   0.020006   0.000038  -0.014001
   28  C  6  X   -0.029582   0.018889  -0.049340  -0.060007   0.127247
   29  C  6  Y    0.068490   0.011882  -0.168209   0.030626  -0.000199
   30  C  6  Z    0.069488   0.042557   0.158556   0.048645  -0.158332
   31  C  7  S   -0.000734  -0.046259   0.006350   0.007857  -0.019775
   32  C  7  S   -0.008072   0.157011  -0.040362  -0.016213   0.065754
   33  C  7  X   -0.093378   0.111346   0.026662   0.130748  -0.056446
   34  C  7  Y    0.067708  -0.005153   0.250721  -0.087956  -0.062732
   35  C  7  Z    0.205503  -0.154700   0.095203  -0.223266   0.111854
   36  C  8  S   -0.014227   0.049925  -0.020055   0.018412  -0.005405
   37  C  8  S    0.034824  -0.162990   0.053675  -0.052176   0.015893
   38  C  8  X   -0.005733  -0.079130   0.106028   0.051937  -0.120654
   39  C  8  Y   -0.166314  -0.122436  -0.114046   0.241180  -0.154117
   40  C  8  Z   -0.022083   0.081821  -0.204068  -0.003656   0.124355
   41  C  9  S    0.033248  -0.086017   0.007434   0.011692   0.020778
   42  C  9  S   -0.113898   0.299706  -0.022877  -0.038552  -0.070856
   43  C  9  X    0.016185  -0.015229  -0.213307  -0.043962   0.098725
   44  C  9  Y   -0.056374   0.023415  -0.153662   0.001068   0.046890
   45  C  9  Z   -0.012893   0.026641   0.177509  -0.050869  -0.214820
   46  O 10  S   -0.034089   0.054691  -0.002603  -0.009696  -0.028590
   47  O 10  S    0.167499  -0.269448   0.012594   0.049424   0.148055
   48  O 10  X   -0.025380   0.025936  -0.194357  -0.010533   0.056056
   49  O 10  Y    0.098500  -0.217921  -0.138891   0.091667   0.255756
   50  O 10  Z    0.099496  -0.136912   0.179054  -0.038552  -0.054218
   51  H 11  S   -0.070931  -0.011139  -0.128245  -0.209639  -0.208433
   52  H 12  S    0.248357   0.114460   0.010886   0.134126   0.045028
   53  H 13  S    0.154315   0.069445  -0.028283   0.026787  -0.012875
   54  H 14  S    0.255347   0.075382  -0.086573  -0.034768  -0.113003
   55  H 15  S   -0.075598   0.058771   0.148257   0.144900   0.233743
   56  H 16  S   -0.002034  -0.186762  -0.003464  -0.174468   0.127947
   57  H 17  S   -0.085263   0.263974   0.043179  -0.210058   0.111726
   58  H 18  S   -0.065084  -0.101096   0.049076  -0.052896   0.098195
   59  H 19  S   -0.176775   0.230052  -0.072074   0.212576  -0.076618
   60  H 20  S   -0.086877  -0.209201   0.025318   0.169479  -0.176573

                     26         27         28         29         30
                   -0.5156    -0.5060    -0.4866    -0.4785    -0.4506
                     A          A          A          A          A   
    1  C  1  S    0.010053  -0.008405   0.003792  -0.030589   0.007158
    2  C  1  S   -0.036976   0.017062  -0.017691   0.106787  -0.025501
    3  C  1  X    0.047872  -0.210834  -0.048446  -0.137050   0.051010
    4  C  1  Y   -0.013873   0.054367   0.289647   0.031610  -0.104842
    5  C  1  Z   -0.197501  -0.045829   0.027480   0.249664  -0.157137
    6  C  2  S   -0.009521  -0.017083  -0.007639   0.007273  -0.002194
    7  C  2  S    0.033611   0.060538   0.032978  -0.032398   0.007495
    8  C  2  X   -0.140683  -0.068812  -0.084961   0.262516  -0.081543
    9  C  2  Y    0.122185   0.046774  -0.267034   0.085740   0.109558
   10  C  2  Z    0.104743  -0.221218  -0.130812  -0.154115   0.128544
   11  C  3  S   -0.009837  -0.002884   0.031997  -0.005298  -0.006822
   12  C  3  S    0.026614   0.000507  -0.110509   0.023870   0.022028
   13  C  3  X   -0.012259  -0.186262  -0.070109  -0.106806   0.077161
   14  C  3  Y   -0.078040   0.160594   0.205351  -0.137757  -0.093911
   15  C  3  Z   -0.181828  -0.056999   0.175119   0.259396  -0.158937
   16  C  4  S   -0.011531   0.008578   0.001372  -0.000467   0.003653
   17  C  4  S    0.035811  -0.042937  -0.004780   0.008660  -0.004343
   18  C  4  X    0.217386   0.185210  -0.006273  -0.018399  -0.156461
   19  C  4  Y    0.049859  -0.024887   0.137503   0.064310   0.182750
   20  C  4  Z   -0.147996   0.177585  -0.000387  -0.031140   0.224553
   21  C  5  S   -0.004801  -0.021112  -0.005592   0.007888  -0.000226
   22  C  5  S    0.018961   0.074327   0.022296  -0.028143   0.000931
   23  C  5  X    0.033074   0.223858   0.054528  -0.000077   0.173462
   24  C  5  Y    0.042572   0.122750  -0.104232  -0.036297  -0.147110
   25  C  5  Z    0.151577   0.019168  -0.013417  -0.084618  -0.278195
   26  C  6  S    0.022073  -0.006612  -0.002824   0.011556  -0.004972
   27  C  6  S   -0.082690   0.013502   0.006789  -0.043247   0.007816
   28  C  6  X    0.146638   0.192230   0.012199  -0.062142  -0.086059
   29  C  6  Y   -0.211564   0.102151   0.070930  -0.155793   0.082635
   30  C  6  Z   -0.107302   0.151749   0.023419   0.056904   0.307478
   31  C  7  S    0.019231   0.000882   0.011857   0.002254  -0.003211
   32  C  7  S   -0.072371   0.001685  -0.030004  -0.011435   0.021363
   33  C  7  X    0.107816   0.125056  -0.049910   0.152714   0.100490
   34  C  7  Y    0.057817  -0.131771  -0.113039   0.091044  -0.056217
   35  C  7  Z   -0.039575   0.107788  -0.111644  -0.101006  -0.114658
   36  C  8  S   -0.010107   0.003954  -0.000975   0.003724   0.011157
   37  C  8  S    0.036163  -0.009165   0.014304  -0.015824  -0.036093
   38  C  8  X    0.022556   0.192798  -0.092861  -0.015903  -0.057827
   39  C  8  Y   -0.039019   0.073164   0.152567  -0.094935   0.049545
   40  C  8  Z    0.055805   0.082250   0.028915   0.123478   0.134525
   41  C  9  S    0.006462   0.008414   0.007584  -0.014746   0.000396
   42  C  9  S   -0.014436  -0.034046  -0.021443   0.057969   0.001197
   43  C  9  X    0.071466   0.220548  -0.109763   0.159893   0.061905
   44  C  9  Y   -0.308261  -0.009068  -0.158003  -0.129250  -0.053319
   45  C  9  Z   -0.052753   0.200169  -0.167583  -0.072273  -0.163743
   46  O 10  S   -0.055820   0.009995  -0.034641  -0.021418  -0.018409
   47  O 10  S    0.297709  -0.053793   0.190409   0.119232   0.105856
   48  O 10  X   -0.046282   0.195258  -0.180418   0.119321   0.049240
   49  O 10  Y    0.243054  -0.107676   0.243133   0.174004   0.273909
   50  O 10  Z    0.310846   0.093748   0.127941   0.096700  -0.012142
   51  H 11  S    0.067787   0.011764   0.217625  -0.091822  -0.010037
   52  H 12  S    0.102718  -0.021059  -0.270391  -0.110473   0.166437
   53  H 13  S    0.008059  -0.039238   0.239690  -0.251682  -0.015687
   54  H 14  S   -0.109025   0.081556   0.114184   0.277024  -0.157246
   55  H 15  S    0.005991   0.094219   0.076016  -0.244331   0.002628
   56  H 16  S   -0.181706   0.079651  -0.000203  -0.014186   0.256892
   57  H 17  S    0.031012  -0.085710   0.092950  -0.021933  -0.012107
   58  H 18  S    0.223848  -0.056451  -0.065200   0.048895  -0.232965
   59  H 19  S    0.052415  -0.023352   0.049585   0.163891   0.174768
   60  H 20  S   -0.016214   0.105852   0.092513  -0.129379  -0.037694

                     31         32         33         34         35
                   -0.4448    -0.4166    -0.3568    -0.3143    -0.2712
                     A          A          A          A          A   
    1  C  1  S   -0.009207   0.002095  -0.005649  -0.000052  -0.027302
    2  C  1  S    0.037896   0.006785   0.006879   0.000758   0.131677
    3  C  1  X    0.001048   0.243674  -0.056616  -0.002748   0.320579
    4  C  1  Y   -0.171207   0.026698   0.095044  -0.023097  -0.011365
    5  C  1  Z    0.100492   0.102652  -0.122140   0.022664   0.231074
    6  C  2  S    0.002702   0.020825   0.012980  -0.003309   0.006645
    7  C  2  S   -0.015267  -0.073846  -0.049590   0.010590  -0.028331
    8  C  2  X    0.127448   0.037584   0.094846   0.014136   0.051466
    9  C  2  Y    0.116100  -0.193453  -0.108924   0.014428  -0.016572
   10  C  2  Z    0.024564   0.146162   0.071487   0.000528   0.129069
   11  C  3  S   -0.014592  -0.005346  -0.011604  -0.002308   0.012014
   12  C  3  S    0.052150   0.021625   0.066246   0.010738  -0.071766
   13  C  3  X   -0.006896   0.130887   0.304630  -0.003058  -0.219666
   14  C  3  Y   -0.126378   0.150673  -0.058219  -0.025106   0.068413
   15  C  3  Z    0.008573  -0.000282   0.171284   0.012326  -0.121496
   16  C  4  S    0.023870   0.008949  -0.015858  -0.031822   0.012603
   17  C  4  S   -0.087573  -0.029133   0.085471   0.144799  -0.069304
   18  C  4  X    0.002399  -0.043764  -0.252486   0.132710   0.274317
   19  C  4  Y    0.127525   0.028279   0.048469   0.294258   0.045568
   20  C  4  Z   -0.018450   0.003042  -0.209467  -0.080384   0.166288
   21  C  5  S    0.004608   0.017119   0.011810   0.007295   0.001801
   22  C  5  S   -0.007954  -0.063381  -0.041846  -0.023274  -0.003351
   23  C  5  X   -0.024563  -0.140021  -0.038885   0.107367   0.016268
   24  C  5  Y   -0.194681  -0.092400  -0.079137  -0.081770   0.030303
   25  C  5  Z    0.136843  -0.058760  -0.007201   0.068761   0.084018
   26  C  6  S   -0.002390  -0.006456   0.018111  -0.001438  -0.005912
   27  C  6  S    0.020109   0.037296  -0.078651   0.009212   0.050607
   28  C  6  X    0.019975  -0.243508   0.234631   0.037427  -0.245556
   29  C  6  Y    0.314774   0.008523   0.035570   0.064621   0.003117
   30  C  6  Z   -0.144325  -0.088757   0.051905  -0.063601  -0.112689
   31  C  7  S   -0.009998   0.003077  -0.009187  -0.012260   0.006447
   32  C  7  S    0.052109  -0.008960   0.036255   0.044396  -0.025671
   33  C  7  X   -0.119005  -0.007185   0.327769  -0.166854   0.280773
   34  C  7  Y   -0.314074   0.023354  -0.134820   0.037367  -0.008612
   35  C  7  Z    0.053617  -0.035658   0.283498   0.008545   0.150742
   36  C  8  S   -0.005645  -0.000668   0.006440   0.037099   0.005664
   37  C  8  S    0.038449   0.002650  -0.027223  -0.165555  -0.027869
   38  C  8  X    0.028223   0.078569   0.359054   0.065760   0.335375
   39  C  8  Y    0.202366  -0.031815  -0.068078   0.048197  -0.087570
   40  C  8  Z    0.054466   0.076120   0.169609  -0.319800   0.166331
   41  C  9  S   -0.002636  -0.002313   0.006956   0.001059  -0.009001
   42  C  9  S    0.011144   0.012107  -0.025226  -0.002719   0.037571
   43  C  9  X   -0.041630   0.365933  -0.046088  -0.069245  -0.131842
   44  C  9  Y   -0.165273  -0.115592   0.023651  -0.110664  -0.021551
   45  C  9  Z    0.059290   0.211645   0.010225   0.145115  -0.062405
   46  O 10  S   -0.011116  -0.002739   0.000767  -0.000306   0.000258
   47  O 10  S    0.064639   0.016494  -0.006713   0.001536   0.001256
   48  O 10  X   -0.162070   0.394502   0.018919   0.498093  -0.255862
   49  O 10  Y   -0.067588  -0.078211   0.051572   0.399115   0.166083
   50  O 10  Z    0.293211   0.289695  -0.115245  -0.453662  -0.270241
   51  H 11  S   -0.182771   0.044855   0.124397  -0.027634  -0.031397
   52  H 12  S    0.110846  -0.078785  -0.008670   0.010948  -0.072667
   53  H 13  S   -0.165004   0.173179   0.060634  -0.018770   0.025307
   54  H 14  S    0.041578  -0.086373  -0.069294   0.016596   0.049213
   55  H 15  S   -0.103158   0.160369  -0.040409  -0.041102   0.069994
   56  H 16  S   -0.069920   0.000738  -0.103229  -0.110559   0.042298
   57  H 17  S    0.248209   0.050247   0.069497   0.113904   0.009397
   58  H 18  S   -0.190370  -0.067994   0.011885  -0.009176  -0.080025
   59  H 19  S   -0.094887   0.022742  -0.058411  -0.116496   0.009533
   60  H 20  S    0.203960  -0.017873   0.035681   0.120123   0.000827

                     36         37         38         39         40
                   -0.2234     0.2067     0.2159     0.3540     0.3894
                     A          A          A          A          A   
    1  C  1  S   -0.025327  -0.000457  -0.041469  -0.031132  -0.030403
    2  C  1  S    0.090300   0.028775   0.208751   0.134067   0.160006
    3  C  1  X    0.157318   0.139798   0.349523   0.313490   0.330010
    4  C  1  Y   -0.010188  -0.016482  -0.018405  -0.082610  -0.007255
    5  C  1  Z    0.126429   0.039834   0.221797   0.291675   0.143030
    6  C  2  S    0.021705  -0.018746  -0.007577   0.001262  -0.007705
    7  C  2  S   -0.105094   0.105398   0.043123  -0.009081   0.057395
    8  C  2  X    0.397069  -0.393840  -0.186879   0.043207  -0.247336
    9  C  2  Y   -0.185791   0.135972   0.083426  -0.011691   0.095086
   10  C  2  Z    0.320549  -0.321936  -0.092640   0.038769  -0.198643
   11  C  3  S   -0.030053  -0.025805   0.029763   0.040280  -0.021909
   12  C  3  S    0.113605   0.149961  -0.130239  -0.184680   0.121908
   13  C  3  X    0.235877   0.300657  -0.179624  -0.432169   0.202335
   14  C  3  Y   -0.050997  -0.011765   0.043423   0.132733   0.051603
   15  C  3  Z    0.122897   0.196186  -0.075018  -0.268057   0.134216
   16  C  4  S    0.031972  -0.009136  -0.022288  -0.051463  -0.008587
   17  C  4  S   -0.123840   0.071835   0.097658   0.249597   0.063771
   18  C  4  X    0.172118  -0.198295  -0.228614  -0.464417   0.029626
   19  C  4  Y   -0.029348   0.045839   0.016015  -0.022813  -0.042117
   20  C  4  Z    0.137915  -0.092329  -0.138418  -0.292031   0.026296
   21  C  5  S   -0.022665  -0.019157  -0.006828  -0.002373   0.020653
   22  C  5  S    0.107800   0.108359   0.037493   0.013708  -0.115167
   23  C  5  X    0.502264   0.542490   0.171236   0.045168  -0.113296
   24  C  5  Y    0.112930   0.070510   0.050362  -0.021826  -0.065395
   25  C  5  Z    0.200287   0.230908   0.132474  -0.056932  -0.054182
   26  C  6  S    0.030046  -0.019816   0.009479   0.053890   0.006562
   27  C  6  S   -0.119074   0.111391  -0.017210  -0.269994  -0.014107
   28  C  6  X    0.246284  -0.272261   0.075012   0.481201   0.176903
   29  C  6  Y   -0.018179   0.010529   0.005979   0.014953  -0.022216
   30  C  6  Z    0.122510  -0.195323   0.009474   0.210826   0.103360
   31  C  7  S    0.008319   0.015183   0.009062  -0.001348  -0.001001
   32  C  7  S   -0.034233  -0.073491  -0.042314   0.008455   0.007874
   33  C  7  X   -0.052135  -0.173659   0.403011  -0.354809   0.325861
   34  C  7  Y    0.053348   0.130327  -0.040166   0.073775  -0.072525
   35  C  7  Z   -0.064385  -0.154322   0.226121  -0.217546   0.193015
   36  C  8  S   -0.004765  -0.007495  -0.002925   0.001411  -0.002306
   37  C  8  S    0.021404   0.033500   0.013117  -0.008379   0.012989
   38  C  8  X   -0.164204   0.242902  -0.245663   0.199079  -0.473159
   39  C  8  Y    0.031151  -0.068599   0.061361  -0.051778   0.126904
   40  C  8  Z   -0.063395   0.181897  -0.159188   0.140007  -0.313084
   41  C  9  S    0.009036   0.018635   0.003408   0.001756  -0.000268
   42  C  9  S   -0.038306  -0.089399  -0.018395  -0.011667   0.003384
   43  C  9  X    0.031380   0.109599  -0.349812   0.181489   0.500048
   44  C  9  Y    0.056756   0.081992   0.114293  -0.053652  -0.124741
   45  C  9  Z   -0.023514  -0.003542  -0.250377   0.115754   0.322493
   46  O 10  S   -0.000120  -0.002085  -0.000906  -0.001451   0.000128
   47  O 10  S   -0.001298   0.009063   0.004990   0.009502  -0.001438
   48  O 10  X   -0.051710  -0.106369   0.424175  -0.141086  -0.360784
   49  O 10  Y   -0.061109  -0.031804  -0.126332   0.022311   0.093916
   50  O 10  Z    0.050778  -0.022820   0.282743  -0.098525  -0.227616
   51  H 11  S    0.072355  -0.130730  -0.061040   0.066923  -0.071163
   52  H 12  S    0.002693  -0.044956  -0.056628   0.011876  -0.037135
   53  H 13  S    0.047136  -0.016160  -0.004503   0.002204   0.010141
   54  H 14  S   -0.003106  -0.076826   0.005812  -0.001326  -0.040102
   55  H 15  S    0.060960  -0.129059  -0.043995  -0.032523  -0.079862
   56  H 16  S    0.005898  -0.067676   0.002764  -0.019003  -0.091460
   57  H 17  S   -0.061084  -0.020075  -0.006475   0.002966   0.030495
   58  H 18  S    0.005107  -0.054447  -0.068540   0.057253  -0.086163
   59  H 19  S    0.023129   0.030703   0.008698  -0.006581  -0.017232
   60  H 20  S   -0.024819  -0.041526  -0.022129   0.013727  -0.016488

                     41         42         43         44         45
                    0.5165     0.5729     0.5898     0.6220     0.6227
                     A          A          A          A          A   
    1  C  1  S   -0.010614   0.024669   0.003101  -0.007571   0.036467
    2  C  1  S    0.037480  -0.159155  -0.018430   0.051085  -0.230146
    3  C  1  X    0.410718   0.067814   0.038588  -0.029255   0.046746
    4  C  1  Y   -0.035333   0.241509   0.213113   0.063871   0.394248
    5  C  1  Z    0.218230   0.049439  -0.056328  -0.008933   0.016152
    6  C  2  S   -0.031065   0.020531   0.013931  -0.000743   0.042411
    7  C  2  S    0.194219  -0.127461  -0.087415   0.001678  -0.268128
    8  C  2  X   -0.256083   0.123274   0.104212  -0.045420   0.268438
    9  C  2  Y    0.144073   0.211987   0.164515   0.004191   0.400398
   10  C  2  Z   -0.221768  -0.069662  -0.044045   0.024052  -0.107524
   11  C  3  S   -0.011462   0.013115   0.025918   0.027877   0.030968
   12  C  3  S    0.041879  -0.084620  -0.166087  -0.175250  -0.194721
   13  C  3  X    0.394753   0.152089   0.137931   0.013725   0.198557
   14  C  3  Y   -0.019289   0.172718   0.048778  -0.141114   0.234443
   15  C  3  Z    0.268542  -0.155440  -0.096265   0.061172  -0.260330
   16  C  4  S    0.043393  -0.000288   0.047385   0.111526  -0.010275
   17  C  4  S   -0.229960  -0.020679  -0.290858  -0.655877   0.075717
   18  C  4  X    0.435870   0.164377   0.042870  -0.302233  -0.150519
   19  C  4  Y   -0.116719   0.292810  -0.048347  -0.481852  -0.153164
   20  C  4  Z    0.246148  -0.242539  -0.174038  -0.020742   0.163393
   21  C  5  S    0.010264   0.043934   0.019024   0.002414  -0.050080
   22  C  5  S   -0.078888  -0.274512  -0.121444  -0.019889   0.314935
   23  C  5  X   -0.367316   0.026767  -0.013507   0.056353   0.013459
   24  C  5  Y   -0.069822   0.309395   0.151596   0.033267  -0.294370
   25  C  5  Z   -0.138007  -0.136344  -0.126539   0.190227   0.158950
   26  C  6  S    0.040378   0.055072  -0.065054  -0.015301   0.006479
   27  C  6  S   -0.213915  -0.347939   0.377581   0.088994  -0.023838
   28  C  6  X    0.386525  -0.152297   0.245206  -0.094319  -0.067145
   29  C  6  Y   -0.043884   0.294298   0.366047   0.175947  -0.333028
   30  C  6  Z    0.332559   0.104036  -0.170920   0.095795  -0.014045
   31  C  7  S   -0.015740   0.050688   0.021231   0.051254  -0.048325
   32  C  7  S    0.089698  -0.309307  -0.113773  -0.342886   0.288370
   33  C  7  X   -0.293198  -0.114100   0.275586  -0.086644  -0.038805
   34  C  7  Y   -0.005376   0.034646   0.371820   0.086686  -0.201829
   35  C  7  Z   -0.127794   0.274257  -0.381039   0.226246  -0.017019
   36  C  8  S    0.014585  -0.010837   0.023343   0.111049   0.000285
   37  C  8  S   -0.084976   0.041409  -0.120243  -0.683290   0.002800
   38  C  8  X    0.234631  -0.181825   0.352926  -0.017008  -0.060994
   39  C  8  Y   -0.080502  -0.078425   0.196262  -0.361968  -0.049838
   40  C  8  Z    0.164253   0.189462  -0.423529  -0.188389   0.065824
   41  C  9  S   -0.017885   0.090808  -0.088999  -0.128739  -0.018652
   42  C  9  S    0.102222  -0.535343   0.525819   0.757167   0.107714
   43  C  9  X   -0.312491   0.031573   0.214336  -0.005976  -0.111601
   44  C  9  Y    0.000111   0.129566   0.035831  -0.466214  -0.116154
   45  C  9  Z   -0.148630   0.030555  -0.314741  -0.035404   0.108837
   46  O 10  S    0.002662  -0.018910   0.013330   0.007189   0.003876
   47  O 10  S   -0.015601   0.118463  -0.079604  -0.029326  -0.025285
   48  O 10  X    0.162725   0.004438  -0.076711   0.006139   0.027715
   49  O 10  Y   -0.005615  -0.150946   0.040547   0.087007   0.061304
   50  O 10  Z    0.093858  -0.089002   0.131118  -0.037541  -0.015317
   51  H 11  S   -0.001951  -0.125792  -0.220051  -0.078000  -0.241234
   52  H 12  S    0.069062   0.309067   0.174706   0.021105   0.463849
   53  H 13  S   -0.041941   0.347789   0.258778  -0.030196   0.652130
   54  H 14  S    0.066285   0.273340   0.251930   0.035065   0.439594
   55  H 15  S   -0.011263  -0.215426  -0.043159   0.224842  -0.278460
   56  H 16  S    0.032558   0.311169   0.348942   0.244190  -0.261842
   57  H 17  S   -0.021331   0.518000   0.274547  -0.057373  -0.517355
   58  H 18  S    0.053282   0.538530  -0.087282   0.171736  -0.235251
   59  H 19  S   -0.003855   0.483282  -0.424414   0.398798  -0.138552
   60  H 20  S    0.085812   0.166074  -0.390561   0.656374   0.100475

                     46         47         48         49         50
                    0.6647     0.6976     0.7143     0.7259     0.7411
                     A          A          A          A          A   
    1  C  1  S    0.034338  -0.116273  -0.026704   0.126745  -0.066461
    2  C  1  S   -0.215392   0.739400   0.161535  -0.811041   0.419426
    3  C  1  X    0.038975   0.013048  -0.138077   0.026837   0.141480
    4  C  1  Y   -0.272621  -0.134847   0.229442  -0.514757  -0.039889
    5  C  1  Z    0.026939  -0.403647   0.181537   0.153635  -0.312300
    6  C  2  S   -0.010932   0.070768   0.062435  -0.014088  -0.006875
    7  C  2  S    0.064177  -0.431658  -0.387638   0.087362   0.069297
    8  C  2  X    0.010786   0.096888  -0.024945   0.154134   0.051451
    9  C  2  Y   -0.095094  -0.024831   0.058280  -0.175115  -0.053224
   10  C  2  Z   -0.110846  -0.070033   0.064045  -0.278350   0.000945
   11  C  3  S    0.001826  -0.088452  -0.122585  -0.090374  -0.066957
   12  C  3  S   -0.012268   0.553874   0.786056   0.581939   0.421510
   13  C  3  X    0.129611   0.011109  -0.340369   0.145644  -0.007196
   14  C  3  Y   -0.003122   0.149361   0.236094   0.343695   0.281709
   15  C  3  Z   -0.191986  -0.238002   0.236025  -0.368416  -0.001389
   16  C  4  S    0.013313  -0.024201  -0.045364   0.025294   0.130876
   17  C  4  S   -0.091086   0.154159   0.300352  -0.142137  -0.817991
   18  C  4  X    0.245359   0.199258   0.032004  -0.090457  -0.135697
   19  C  4  Y   -0.030826  -0.139017  -0.023492  -0.062397   0.164392
   20  C  4  Z   -0.491692  -0.105416   0.206177   0.180566  -0.047861
   21  C  5  S    0.000270   0.056025   0.046782   0.001542  -0.146718
   22  C  5  S   -0.008997  -0.353609  -0.305996  -0.006452   0.935268
   23  C  5  X    0.212643  -0.008458   0.018241  -0.072151  -0.127250
   24  C  5  Y   -0.083328  -0.103609   0.022900   0.035990   0.080549
   25  C  5  Z   -0.239746  -0.053121   0.039956   0.153420  -0.048206
   26  C  6  S    0.080147  -0.079930   0.031164  -0.051481   0.115972
   27  C  6  S   -0.479177   0.509653  -0.192358   0.304505  -0.728602
   28  C  6  X   -0.150609   0.287289  -0.212052  -0.015642  -0.066870
   29  C  6  Y   -0.444774  -0.204845   0.050367   0.193702   0.242819
   30  C  6  Z   -0.128146  -0.080055   0.298090   0.017474  -0.126834
   31  C  7  S   -0.120854   0.061853  -0.085969   0.052980  -0.026089
   32  C  7  S    0.744756  -0.409186   0.547839  -0.325627   0.161066
   33  C  7  X    0.044877  -0.124508   0.004206   0.057091   0.054625
   34  C  7  Y   -0.288244   0.061137   0.081234   0.137926  -0.147100
   35  C  7  Z   -0.049606   0.015433   0.013659   0.083886  -0.111529
   36  C  8  S    0.091389  -0.003977   0.106834  -0.003634  -0.043153
   37  C  8  S   -0.551695   0.011705  -0.682789   0.019292   0.287565
   38  C  8  X   -0.033300  -0.009420   0.060965   0.049639  -0.029132
   39  C  8  Y   -0.140708  -0.250057   0.051804   0.033905   0.100018
   40  C  8  Z   -0.070969   0.016520  -0.067954  -0.093891   0.033403
   41  C  9  S    0.005064   0.028058  -0.048586  -0.040350  -0.023981
   42  C  9  S   -0.042762  -0.182641   0.293117   0.242760   0.143216
   43  C  9  X    0.210898  -0.037979   0.160181  -0.066652  -0.176212
   44  C  9  Y    0.010579  -0.073731   0.184452  -0.061916  -0.157496
   45  C  9  Z   -0.285583  -0.132050  -0.305545  -0.013309   0.237673
   46  O 10  S   -0.017012  -0.020918   0.011315   0.007641   0.010136
   47  O 10  S    0.120892   0.143785  -0.074662  -0.050700  -0.069279
   48  O 10  X   -0.040706   0.044662  -0.059841   0.008762   0.035342
   49  O 10  Y   -0.177681  -0.155683   0.011151   0.064892   0.126164
   50  O 10  Z   -0.031858  -0.076275   0.144117   0.033556  -0.025260
   51  H 11  S    0.322727  -0.426008  -0.128357   0.860170  -0.323797
   52  H 12  S   -0.112419  -0.651431   0.182807   0.042633  -0.388221
   53  H 13  S   -0.083312   0.285464   0.225513  -0.044216  -0.021843
   54  H 14  S    0.220458  -0.092050  -0.733776   0.089433  -0.202250
   55  H 15  S   -0.088692  -0.457882  -0.429712  -0.737269  -0.415977
   56  H 16  S    0.581437   0.083248  -0.285540  -0.112440   0.403583
   57  H 17  S    0.041783   0.117245   0.148212  -0.032443  -0.392553
   58  H 18  S   -0.089088  -0.534350   0.327902  -0.001718   0.513248
   59  H 19  S   -0.468332   0.288996  -0.261273   0.173246  -0.188738
   60  H 20  S    0.420354   0.199378   0.256469  -0.082525  -0.185359

                     51         52         53         54         55
                    0.7566     0.7867     0.8227     0.8762     0.8828
                     A          A          A          A          A   
    1  C  1  S    0.067795   0.037197  -0.025593   0.010194  -0.023126
    2  C  1  S   -0.437996  -0.232706   0.159004  -0.071091   0.168464
    3  C  1  X   -0.079452   0.296264  -0.198065  -0.012098  -0.184095
    4  C  1  Y    0.365165   0.225784  -0.172250  -0.157713  -0.070911
    5  C  1  Z    0.331862  -0.414678   0.322963   0.023551   0.103996
    6  C  2  S   -0.024345  -0.164975   0.110686   0.012979  -0.001673
    7  C  2  S    0.160319   1.092143  -0.740496  -0.088143   0.011586
    8  C  2  X   -0.030393   0.159607  -0.132860   0.073771  -0.143204
    9  C  2  Y    0.023642  -0.143194   0.095657   0.180621   0.204276
   10  C  2  Z    0.103107   0.195751  -0.130576  -0.070090   0.298589
   11  C  3  S   -0.056032   0.053357  -0.020937   0.006688   0.023379
   12  C  3  S    0.360539  -0.335192   0.131499  -0.052834  -0.168416
   13  C  3  X   -0.290256   0.028424  -0.016435  -0.011707   0.056812
   14  C  3  Y    0.216378   0.508029  -0.425674  -0.080366   0.213712
   15  C  3  Z    0.430263   0.092762  -0.055587   0.077078   0.102842
   16  C  4  S    0.054546  -0.053853  -0.012665   0.033256   0.082742
   17  C  4  S   -0.344959   0.339180   0.082693  -0.236305  -0.574267
   18  C  4  X    0.139282   0.026515   0.136085  -0.266971  -0.055205
   19  C  4  Y   -0.047350   0.313979   0.488489   0.329076   0.480179
   20  C  4  Z   -0.304428   0.115101  -0.028075   0.407101  -0.296150
   21  C  5  S   -0.033056  -0.046113  -0.118380  -0.058172  -0.003220
[...]
 18   H            X -0.05829299  0.01998391 -0.02567777 -0.04545011 -0.01083162
                   Y -0.09970356  0.00804345  0.02649710 -0.08320878 -0.01688761
                   Z -0.01282338  0.00335283 -0.00071038  0.02236403  0.00071022
 19   H            X -0.01326229  0.00072863  0.00376725 -0.08997460 -0.01958372
                   Y -0.07010940  0.00374082  0.02158552 -0.13731767 -0.02608657
                   Z  0.00130560  0.00006417  0.00752604  0.07686878  0.01786042
 20   H            X  0.00461143 -0.00042320 -0.00169766 -0.07028315 -0.04889451
                   Y  0.01513494 -0.00013606 -0.00874462 -0.06514628  0.01338640
                   Z -0.00709851 -0.00128751  0.01413762  0.10117953  0.08328475

 TRANS. SAYVETZ    X -0.00000126  0.00000021 -0.00000178 -0.00000057 -0.00000242
                   Y -0.00000131  0.00000155 -0.00000143 -0.00000142 -0.00000028
                   Z  0.00000136  0.00000266 -0.00000031  0.00000015  0.00000073
               TOTAL  0.00000227  0.00000309  0.00000231  0.00000154  0.00000254

   ROT. SAYVETZ    X  0.00002588 -0.00018905 -0.00002642 -0.00003187  0.00001874
                   Y  0.00010629  0.00013485 -0.00011844  0.00002554 -0.00001333
                   Z -0.00004167  0.00001724  0.00002754 -0.00000278  0.00001456
               TOTAL  0.00011706  0.00023286  0.00012444  0.00004093  0.00002722

                           51          52          53          54          55
       FREQUENCY:      3630.08     3634.32     3686.09     3693.06     3695.66  
        SYMMETRY:         A           A           A           A           A   
    REDUCED MASS:      1.06267     1.06462     1.09101     1.09411     1.09590
    IR INTENSITY:      0.09887     0.07246     0.19344     0.04547     0.14157

  1   C            X  0.01614571  0.00833888 -0.00262391  0.00023592  0.00524610
                   Y -0.00219742 -0.00071279 -0.00127082  0.00137869  0.00410304
                   Z -0.05767589 -0.03189929  0.00574749 -0.00144211 -0.00877710
  2   C            X  0.00126841 -0.00344795  0.00808091 -0.00452167 -0.03673199
                   Y  0.00883430  0.00097565  0.01481848 -0.00870755 -0.06786657
                   Z -0.00225019  0.00633788 -0.00510755  0.00266157  0.02324376
  3   C            X -0.01299311  0.02571781  0.00108679 -0.00028345  0.00006163
                   Y  0.02637035 -0.05152178 -0.00638519  0.00195122  0.01089719
                   Z  0.01086811 -0.01976266 -0.00103409  0.00158336  0.00135692
  4   C            X  0.00090118 -0.00117666  0.01934091  0.01829041  0.00399142
                   Y  0.00058162  0.00060787  0.00386010  0.00127258 -0.00009412
                   Z -0.00304248  0.00100144 -0.05402603 -0.05052394 -0.00947247
  5   C            X -0.00057117  0.00038482 -0.00685448 -0.00106527 -0.00002009
                   Y -0.00337462  0.00087177 -0.03587999  0.00913655 -0.00138673
                   Z  0.00145483 -0.00085290  0.01760131  0.00075669  0.00025577
  6   C            X -0.00126950  0.00071438 -0.01668643  0.02728450 -0.00857286
                   Y  0.00263954 -0.00088175  0.03182562 -0.04826400  0.01531598
                   Z  0.00144361  0.00065227  0.01500399 -0.02570430  0.00912602
  7   C            X  0.00067991  0.00005617  0.00382291 -0.00854694  0.00407264
                   Y -0.00003258  0.00007730 -0.00126473  0.00210277 -0.00071878
                   Z -0.00017374  0.00008694 -0.00659871  0.01429823 -0.00674212
  8   C            X -0.00014463  0.00004277 -0.00168533  0.00381485 -0.00165651
                   Y -0.00046877  0.00018540 -0.00263370  0.00660555 -0.00281253
                   Z  0.00016857  0.00005566  0.00126611 -0.00294697  0.00133612
  9   C            X  0.00020150 -0.00021769 -0.00065961 -0.00095865 -0.00007943
                   Y -0.00018003 -0.00003329 -0.00097288 -0.00137463 -0.00014399
                   Z  0.00023374 -0.00021212  0.00049446  0.00083994 -0.00001415
 10   O            X -0.00000499 -0.00001813  0.00002562  0.00007758  0.00001593
                   Y -0.00000237  0.00003965  0.00006424  0.00022260  0.00003411
                   Z -0.00001654  0.00000428 -0.00003632 -0.00004197  0.00002036
 11   H            X -0.13771429 -0.07443249  0.01592690 -0.00496897 -0.01966206
                   Y -0.48705754 -0.26543926  0.04985520 -0.01814257 -0.07616984
                   Z  0.30941882  0.16978517 -0.03034809  0.01119181  0.04630605
 12   H            X -0.01621573 -0.00900364  0.00309208 -0.00077184 -0.00286859
                   Y  0.50413434  0.27115916 -0.03456411  0.00453263  0.02619191
                   Z  0.32592514  0.17480116 -0.02176128  0.00304613  0.01684237
 13   H            X -0.06196937  0.01724898 -0.08394210  0.04902507  0.39080827
                   Y -0.12065143  0.03773033 -0.16577612  0.09624771  0.76635680
                   Z  0.04419983 -0.01083682  0.05978977 -0.03455330 -0.27505766
 14   H            X  0.21394532 -0.40477794 -0.02420229  0.00812942  0.01661977
                   Y -0.00040447  0.00030977  0.00019146  0.00001150 -0.00080057
                   Z -0.22497299  0.42648489  0.02827397 -0.00981405 -0.02031225
 15   H            X -0.06097529  0.11512065  0.01455552 -0.00302997 -0.01783356
                   Y -0.29022533  0.55878100  0.05927286 -0.01315279 -0.08347378
                   Z  0.11858795 -0.22776485 -0.02329810  0.00539299  0.03664447
 16   H            X -0.01080408  0.00318311 -0.21074219 -0.19517960 -0.03720938
                   Y -0.00249674  0.00068996 -0.03529438 -0.03104907 -0.00561922
                   Z  0.03765191 -0.01148724  0.61812285  0.56902918  0.10592722
 17   H            X  0.00707901 -0.00226953  0.07032322 -0.01243608  0.00320709
                   Y  0.03913218 -0.01228272  0.42424331 -0.07860234  0.01978524
                   Z -0.01822147  0.00582994 -0.20036297  0.03556807 -0.00925518
 18   H            X  0.01857177 -0.00668076  0.20106476 -0.31100079  0.09808124
                   Y -0.03027169  0.01075968 -0.35596767  0.55044000 -0.17475942
                   Z -0.01412084  0.00475113 -0.17757427  0.27678759 -0.08886833
 19   H            X -0.00415135  0.00049040 -0.04648580  0.10160207 -0.04729563
                   Y -0.00052645 -0.00022048  0.00061088 -0.00153745  0.00071221
                   Z  0.00680378 -0.00091600  0.07491288 -0.16256523  0.07582313
 20   H            X  0.00208687 -0.00070827  0.01449705 -0.04040632  0.01703091
                   Y  0.00533338 -0.00163531  0.03144009 -0.08483818  0.03573487
                   Z -0.00189300  0.00024373 -0.00982729  0.02667914 -0.01116466

 TRANS. SAYVETZ    X  0.00000037 -0.00000054 -0.00000121 -0.00000024  0.00000079
                   Y -0.00000024  0.00000075 -0.00000165  0.00000106  0.00000035
                   Z -0.00000163  0.00000052 -0.00000196  0.00000062  0.00000041
               TOTAL  0.00000169  0.00000106  0.00000283  0.00000125  0.00000096

   ROT. SAYVETZ    X -0.00002111 -0.00000400 -0.00000069  0.00001376 -0.00000353
                   Y  0.00000114 -0.00003064  0.00000974  0.00003427  0.00000348
                   Z  0.00002926 -0.00001319  0.00001584 -0.00002070  0.00001098
               TOTAL  0.00003610  0.00003360  0.00001860  0.00004234  0.00001205

                           56          57          58          59          60
       FREQUENCY:      3704.05     3712.80     3736.28     3777.40     3780.01  
        SYMMETRY:         A           A           A           A           A   
    REDUCED MASS:      1.09133     1.10022     1.10603     1.11642     1.11674
    IR INTENSITY:      0.55033     0.10234     0.06835     0.00320     0.01483

  1   C            X -0.00040364 -0.00007115 -0.00002903 -0.01012808 -0.00347999
                   Y  0.00062266  0.00197893 -0.00042198 -0.08779167 -0.03186286
                   Z  0.00050535 -0.00030604  0.00003887 -0.00132360 -0.00098366
  2   C            X  0.00263197 -0.00420024  0.00003248 -0.00155664 -0.00245177
                   Y  0.00451653 -0.00724002  0.00006003 -0.00136992 -0.00468537
                   Z -0.00161015  0.00234151 -0.00000098  0.00138457  0.00094643
  3   C            X  0.00002234  0.00053227 -0.00006747  0.01687183 -0.04700643
                   Y -0.00051968  0.00114917 -0.00028749  0.01701620 -0.04584774
                   Z  0.00028244 -0.00136496  0.00016277 -0.02134027  0.05917408
  4   C            X  0.00329563 -0.01086186  0.00101539  0.00006524  0.00002345
                   Y -0.00041468  0.00257132 -0.00001677 -0.00010883  0.00015472
                   Z -0.00873913  0.02645058 -0.00228095  0.00000163  0.00088411
  5   C            X  0.00136344 -0.00836008  0.00059697 -0.00011155 -0.00004043
                   Y  0.01437627 -0.06463639  0.00440631 -0.00033936 -0.00069306
                   Z -0.00567651  0.03221663 -0.00219172  0.00028193  0.00035682
  6   C            X  0.00584717  0.01588981 -0.00133156  0.00058895  0.00056920
                   Y -0.01449002 -0.02664401  0.00508263 -0.00033039 -0.00052531
                   Z -0.00509319 -0.01829094  0.00166846 -0.00030794 -0.00027109
  7   C            X  0.03639710  0.00322714 -0.02471074  0.00014823  0.00012973
                   Y  0.00000827  0.00174615  0.00765191 -0.00004637 -0.00010717
                   Z -0.05747820 -0.00440198  0.04188478 -0.00070379 -0.00046374
  8   C            X -0.01851300 -0.00435322 -0.02781343 -0.00010470 -0.00008852
                   Y -0.03414941 -0.00946863 -0.06791517 -0.00004490  0.00015238
                   Z  0.01383783  0.00268978  0.01415698 -0.00002436  0.00003323
  9   C            X  0.00087175  0.00052118  0.00127199  0.00000904 -0.00013686
                   Y  0.00060717  0.00101740 -0.00005271  0.00001661  0.00005918
                   Z -0.00113184 -0.00033891 -0.00202962  0.00009819 -0.00013705
 10   O            X -0.00010022 -0.00002860 -0.00013699  0.00001225 -0.00002383
                   Y -0.00016264 -0.00018644  0.00014863 -0.00000673  0.00001576
                   Z  0.00008036 -0.00003236  0.00028758 -0.00000837 -0.00001011
 11   H            X -0.00022573 -0.00270301  0.00044670  0.14232241  0.05131840
                   Y  0.00081394 -0.01242881  0.00340184  0.51158254  0.18313205
                   Z -0.00075151  0.00733216 -0.00210078 -0.33119782 -0.11857839
 12   H            X  0.00045285  0.00061498  0.00006468 -0.01667888 -0.00587098
                   Y -0.00626788 -0.00876685  0.00213129  0.52225933  0.19036414
                   Z -0.00401170 -0.00551067  0.00130418  0.34263524  0.12447826
 13   H            X -0.02674271  0.04242733 -0.00010661  0.01442257  0.02861987
                   Y -0.05221090  0.08288972 -0.00048811  0.02184872  0.05469390
                   Z  0.01856931 -0.02967585  0.00012654 -0.01099018 -0.01702689
 14   H            X -0.00009344 -0.00624109  0.00042179 -0.16038728  0.44292387
                   Y -0.00012022  0.00009169 -0.00006140  0.00201527 -0.00464197
                   Z -0.00003659  0.00720624 -0.00045944  0.16809863 -0.46377298
 15   H            X  0.00126887 -0.00252081  0.00092412 -0.04016648  0.11010973
                   Y  0.00483834 -0.01221552  0.00308997 -0.20320464  0.55331006
                   Z -0.00229651  0.00589356 -0.00124060  0.08287963 -0.22485862
 16   H            X -0.03281897  0.09835185 -0.00741457 -0.00059572  0.00384171
                   Y -0.00548958  0.01421608 -0.00105056  0.00000707  0.00058667
                   Z  0.09519730 -0.28357579  0.02171770  0.00209260 -0.01292368
 17   H            X -0.02459038  0.11448521 -0.00689691  0.00074115  0.00126951
                   Y -0.15798642  0.71305343 -0.04556380  0.00398289  0.00766052
                   Z  0.07425794 -0.33861530  0.02150731 -0.00200685 -0.00351065
 18   H            X -0.08057406 -0.17088422  0.02327258 -0.00587252 -0.00439752
                   Y  0.14618986  0.30338394 -0.04350843  0.00934568  0.00750897
                   Z  0.07147982  0.15466715 -0.02123159  0.00443179  0.00360028
 19   H            X -0.41244178 -0.03340691  0.26801782 -0.00360790 -0.00248107
                   Y  0.00091756 -0.00100739 -0.00269348  0.00036288  0.00019382
                   Z  0.65179319  0.05193725 -0.42393618  0.00548577  0.00361638
 20   H            X  0.20213968  0.05172974  0.33111425  0.00077921 -0.00006583
                   Y  0.42246784  0.10878203  0.69550514  0.00108931 -0.00056164
                   Z -0.13030168 -0.03346133 -0.21236433 -0.00013562  0.00021445

 TRANS. SAYVETZ    X  0.00000070  0.00000044  0.00000002 -0.00000003 -0.00000007
                   Y -0.00000021 -0.00000073  0.00000016  0.00000008  0.00000007
                   Z -0.00000008 -0.00000142  0.00000028  0.00000004 -0.00000000
               TOTAL  0.00000073  0.00000165  0.00000033  0.00000009  0.00000010

   ROT. SAYVETZ    X -0.00000135  0.00000222 -0.00000313 -0.00001849  0.00000995
                   Y  0.00002701 -0.00000202 -0.00000839 -0.00001286  0.00000724
                   Z -0.00000923 -0.00001484  0.00000289  0.00001464 -0.00000550
               TOTAL  0.00002857  0.00001514  0.00000941  0.00002686  0.00001348

 REFERENCE ON SAYVETZ CONDITIONS - A. SAYVETZ, J.CHEM.PHYS., 7, 383-389(1939).

 NOTE - THE MODES J,K ARE ORTHONORMALIZED ACCORDING TO
 SUM ON I   M(I) * (X(I,J)*X(I,K) + Y(I,J)*Y(I,K) + Z(I,J)*Z(I,K)) = DELTA(J,K)

  MODE FREQ(CM**-1)  SYMMETRY  RED. MASS  IR INTENS.
     1    1060.369    A        9.324715    0.064321
     2       0.133    A        6.635097    0.000050
     3       0.054    A        6.676859    0.000002
     4       0.006    A        6.702215    0.000000
     5       1.460    A        4.840445    0.013535
     6       5.040    A        4.950931    0.004245
     7       6.240    A        4.624636    0.010655
     8     104.132    A        4.137980    0.029769
     9     203.672    A        3.551369    0.016627
    10     265.247    A        4.167095    0.030697
    11     381.412    A        5.277051    0.035430
    12     437.613    A        2.307279    0.075439
    13     465.617    A        3.414111    0.109581
    14     493.042    A        3.992256    0.077134
    15     506.441    A        4.789741    0.104990
    16     552.686    A        1.961640    0.248727
    17     575.844    A        2.545787    0.264882
    18     610.978    A        4.901205    0.016016
    19     677.216    A        5.711284    0.076627
    20     840.259    A        3.287502    0.033022
    21     851.562    A        4.185976    0.032911
    22     926.856    A        1.667086    2.621599
    23     938.109    A        1.761283    0.121178
    24     964.341    A        1.772474    0.902790
    25    1004.118    A        1.456939    0.150426
    26    1040.444    A        1.586989    0.061892
    27    1092.367    A        1.590194    0.228088
    28    1119.736    A        2.732672    0.001836
    29    1166.736    A        2.141526    0.057041
    30    1209.133    A        1.282447    0.003081
    31    1214.218    A        1.508100    0.090268
    32    1240.835    A        1.141098    0.082504
    33    1270.216    A        1.287366    0.408569
    34    1301.612    A        1.134612    0.247669
    35    1318.495    A        1.219222    0.093698
    36    1341.283    A        1.231507    0.051305
    37    1365.533    A        1.156040    0.010770
    38    1386.068    A        1.275968    0.048818
    39    1418.708    A        1.831279    0.674004
    40    1471.058    A        1.323611    0.088138
    41    1488.626    A        1.670937    0.001693
    42    1599.389    A        1.598210    0.164877
    43    1637.161    A        1.712708    0.166628
    44    1668.014    A        1.524678    0.029342
    45    1718.728    A        2.486342    0.476537
    46    1758.374    A        1.912228    0.035435
    47    1813.503    A        1.256193    0.224300
    48    1856.578    A        2.349655    0.040067
    49    2009.744    A        7.078380    0.062095
    50    2080.653    A       10.639097    1.818324
    51    3630.078    A        1.062666    0.098867
    52    3634.317    A        1.064621    0.072459
    53    3686.086    A        1.091014    0.193445
    54    3693.057    A        1.094113    0.045468
    55    3695.663    A        1.095901    0.141573
    56    3704.053    A        1.091326    0.550328
    57    3712.802    A        1.100222    0.102337
    58    3736.281    A        1.106027    0.068346
    59    3777.403    A        1.116417    0.003199
    60    3780.007    A        1.116742    0.014830

     -------------------------------
     THERMOCHEMISTRY AT T=  298.15 K
     -------------------------------

 USING IDEAL GAS, RIGID ROTOR, HARMONIC NORMAL MODE APPROXIMATIONS.
 P=  1.01325E+05 PASCAL.
 ALL FREQUENCIES ARE SCALED BY   1.00000
 THE MOMENTS OF INERTIA ARE (IN AMU*BOHR**2)
            852.45998          1312.32473          1651.70417
 THE ROTATIONAL SYMMETRY NUMBER IS  1.0
 THE ROTATIONAL CONSTANTS ARE (IN GHZ)
      2.11516     1.37396     1.09165
   1 IMAGINARY FREQUENCY VIBRATION(S) IS(ARE) EXCLUDED
     FROM THE FOLLOWING THERMOCHEMICAL ANALYSIS.
      8 -     60 VIBRATIONAL MODES ARE USED IN THERMOCHEMISTRY.
 THE HARMONIC ZERO POINT ENERGY IS (SCALED BY   1.000)
        0.192360 HARTREE/MOLECULE    42218.051515 CM**-1/MOLECULE 
      120.707588 KCAL/MOL              505.040547 KJ/MOL

               Q               LN Q
 ELEC.     1.00000E+00       0.000000
 TRANS.    6.10192E+07      17.926699
 ROT.      4.86592E+05      13.095182
 VIB.      1.44462E+01       2.670429
 TOT.      4.28928E+14      33.692310

              E         H         G         CV        CP        S
           KJ/MOL    KJ/MOL    KJ/MOL   J/MOL-K   J/MOL-K   J/MOL-K
 ELEC.      0.000     0.000     0.000     0.000     0.000     0.000
 TRANS.     3.718     6.197   -44.439    12.472    20.786   169.836
 ROT.       3.718     3.718   -32.462    12.472    12.472   121.350
 VIB.     516.151   516.151   498.421    93.000    93.000    59.469
 TOTAL    523.588   526.067   421.519   117.943   126.257   350.655
 VIB. THERMAL CORRECTION E(T)-E(0) = H(T)-H(0) =     11110.702 J/MOL

              E         H         G         CV        CP        S
         KCAL/MOL  KCAL/MOL  KCAL/MOL CAL/MOL-K CAL/MOL-K CAL/MOL-K
 ELEC.      0.000     0.000     0.000     0.000     0.000     0.000
 TRANS.     0.889     1.481   -10.621     2.981     4.968    40.592
 ROT.       0.889     0.889    -7.759     2.981     2.981    29.003
 VIB.     123.363   123.363   119.125    22.227    22.227    14.213
 TOTAL    125.141   125.733   100.746    28.189    30.176    83.808
 VIB. THERMAL CORRECTION E(T)-E(0) = H(T)-H(0) =      2655.522 CAL/MOL
 ......END OF NORMAL COORDINATE ANALYSIS......
 STEP CPU TIME =     0.02 TOTAL CPU TIME =         67.5 (      1.1 MIN)
 TOTAL WALL CLOCK TIME=         67.8 SECONDS, CPU UTILIZATION IS    99.60%
               580000  WORDS OF DYNAMIC MEMORY USED
 EXECUTION OF GAMESS TERMINATED NORMALLY Sun Nov 14 14:06:22 2021
 DDI: 263640 bytes (0.3 MB / 0 MWords) used by master data server.

 ----------------------------------------
 CPU timing information for all processes
 ========================================
 0: 66.793 + 0.696 = 67.489
 ----------------------------------------
 ddikick.x: exited gracefully.
----- accounting info -----
Files used on the master node chemcompute-node-0.novalocal were:
-rw-r--r--. 1 chemcomp chemcomp     1516 Nov 14 14:05 /scratch/306447/342447.F05
-rw-rw-r--. 1 chemcomp chemcomp 18001600 Nov 14 14:05 /scratch/306447/342447.F08
-rw-rw-r--. 1 chemcomp chemcomp 70451200 Nov 14 14:06 /scratch/306447/342447.F10
-rw-rw-r--. 1 chemcomp chemcomp   878880 Nov 14 14:06 /scratch/306447/342447.F18
Sun Nov 14 14:06:25 UTC 2021
0.124u 0.144s 1:11.50 0.3%	0+0k 8+216io 0pf+0w
Finishing Up...
Looking for IR data...
Looking for Raman data...
vibramans not found
Looking for thermodynamics data...
Looking for UV-Vis data...
306447
